<?xml version="1.0"?>
<VTKFile type="UnstructuredGrid" version="0.1" byte_order="LittleEndian">
  <UnstructuredGrid>
    <Piece NumberOfPoints="801" NumberOfCells="800">
      <Points>
        <DataArray type="Float32" NumberOfComponents="3" format="ascii">
0.000000 0.0 0.0
0.005000 0.0 0.0
0.010000 0.0 0.0
0.015000 0.0 0.0
0.020000 0.0 0.0
0.025000 0.0 0.0
0.030000 0.0 0.0
0.035000 0.0 0.0
0.040000 0.0 0.0
0.045000 0.0 0.0
0.050000 0.0 0.0
0.055000 0.0 0.0
0.060000 0.0 0.0
0.065000 0.0 0.0
0.070000 0.0 0.0
0.075000 0.0 0.0
0.080000 0.0 0.0
0.085000 0.0 0.0
0.090000 0.0 0.0
0.095000 0.0 0.0
0.100000 0.0 0.0
0.105000 0.0 0.0
0.110000 0.0 0.0
0.115000 0.0 0.0
0.120000 0.0 0.0
0.125000 0.0 0.0
0.130000 0.0 0.0
0.135000 0.0 0.0
0.140000 0.0 0.0
0.145000 0.0 0.0
0.150000 0.0 0.0
0.155000 0.0 0.0
0.160000 0.0 0.0
0.165000 0.0 0.0
0.170000 0.0 0.0
0.175000 0.0 0.0
0.180000 0.0 0.0
0.185000 0.0 0.0
0.190000 0.0 0.0
0.195000 0.0 0.0
0.200000 0.0 0.0
0.205000 0.0 0.0
0.210000 0.0 0.0
0.215000 0.0 0.0
0.220000 0.0 0.0
0.225000 0.0 0.0
0.230000 0.0 0.0
0.235000 0.0 0.0
0.240000 0.0 0.0
0.245000 0.0 0.0
0.250000 0.0 0.0
0.255000 0.0 0.0
0.260000 0.0 0.0
0.265000 0.0 0.0
0.270000 0.0 0.0
0.275000 0.0 0.0
0.280000 0.0 0.0
0.285000 0.0 0.0
0.290000 0.0 0.0
0.295000 0.0 0.0
0.300000 0.0 0.0
0.305000 0.0 0.0
0.310000 0.0 0.0
0.315000 0.0 0.0
0.320000 0.0 0.0
0.325000 0.0 0.0
0.330000 0.0 0.0
0.335000 0.0 0.0
0.340000 0.0 0.0
0.345000 0.0 0.0
0.350000 0.0 0.0
0.355000 0.0 0.0
0.360000 0.0 0.0
0.365000 0.0 0.0
0.370000 0.0 0.0
0.375000 0.0 0.0
0.380000 0.0 0.0
0.385000 0.0 0.0
0.390000 0.0 0.0
0.395000 0.0 0.0
0.400000 0.0 0.0
0.405000 0.0 0.0
0.410000 0.0 0.0
0.415000 0.0 0.0
0.420000 0.0 0.0
0.425000 0.0 0.0
0.430000 0.0 0.0
0.435000 0.0 0.0
0.440000 0.0 0.0
0.445000 0.0 0.0
0.450000 0.0 0.0
0.455000 0.0 0.0
0.460000 0.0 0.0
0.465000 0.0 0.0
0.470000 0.0 0.0
0.475000 0.0 0.0
0.480000 0.0 0.0
0.485000 0.0 0.0
0.490000 0.0 0.0
0.495000 0.0 0.0
0.500000 0.0 0.0
0.505000 0.0 0.0
0.510000 0.0 0.0
0.515000 0.0 0.0
0.520000 0.0 0.0
0.525000 0.0 0.0
0.530000 0.0 0.0
0.535000 0.0 0.0
0.540000 0.0 0.0
0.545000 0.0 0.0
0.550000 0.0 0.0
0.555000 0.0 0.0
0.560000 0.0 0.0
0.565000 0.0 0.0
0.570000 0.0 0.0
0.575000 0.0 0.0
0.580000 0.0 0.0
0.585000 0.0 0.0
0.590000 0.0 0.0
0.595000 0.0 0.0
0.600000 0.0 0.0
0.605000 0.0 0.0
0.610000 0.0 0.0
0.615000 0.0 0.0
0.620000 0.0 0.0
0.625000 0.0 0.0
0.630000 0.0 0.0
0.635000 0.0 0.0
0.640000 0.0 0.0
0.645000 0.0 0.0
0.650000 0.0 0.0
0.655000 0.0 0.0
0.660000 0.0 0.0
0.665000 0.0 0.0
0.670000 0.0 0.0
0.675000 0.0 0.0
0.680000 0.0 0.0
0.685000 0.0 0.0
0.690000 0.0 0.0
0.695000 0.0 0.0
0.700000 0.0 0.0
0.705000 0.0 0.0
0.710000 0.0 0.0
0.715000 0.0 0.0
0.720000 0.0 0.0
0.725000 0.0 0.0
0.730000 0.0 0.0
0.735000 0.0 0.0
0.740000 0.0 0.0
0.745000 0.0 0.0
0.750000 0.0 0.0
0.755000 0.0 0.0
0.760000 0.0 0.0
0.765000 0.0 0.0
0.770000 0.0 0.0
0.775000 0.0 0.0
0.780000 0.0 0.0
0.785000 0.0 0.0
0.790000 0.0 0.0
0.795000 0.0 0.0
0.800000 0.0 0.0
0.805000 0.0 0.0
0.810000 0.0 0.0
0.815000 0.0 0.0
0.820000 0.0 0.0
0.825000 0.0 0.0
0.830000 0.0 0.0
0.835000 0.0 0.0
0.840000 0.0 0.0
0.845000 0.0 0.0
0.850000 0.0 0.0
0.855000 0.0 0.0
0.860000 0.0 0.0
0.865000 0.0 0.0
0.870000 0.0 0.0
0.875000 0.0 0.0
0.880000 0.0 0.0
0.885000 0.0 0.0
0.890000 0.0 0.0
0.895000 0.0 0.0
0.900000 0.0 0.0
0.905000 0.0 0.0
0.910000 0.0 0.0
0.915000 0.0 0.0
0.920000 0.0 0.0
0.925000 0.0 0.0
0.930000 0.0 0.0
0.935000 0.0 0.0
0.940000 0.0 0.0
0.945000 0.0 0.0
0.950000 0.0 0.0
0.955000 0.0 0.0
0.960000 0.0 0.0
0.965000 0.0 0.0
0.970000 0.0 0.0
0.975000 0.0 0.0
0.980000 0.0 0.0
0.985000 0.0 0.0
0.990000 0.0 0.0
0.995000 0.0 0.0
1.000000 0.0 0.0
1.005000 0.0 0.0
1.010000 0.0 0.0
1.015000 0.0 0.0
1.020000 0.0 0.0
1.025000 0.0 0.0
1.030000 0.0 0.0
1.035000 0.0 0.0
1.040000 0.0 0.0
1.045000 0.0 0.0
1.050000 0.0 0.0
1.055000 0.0 0.0
1.060000 0.0 0.0
1.065000 0.0 0.0
1.070000 0.0 0.0
1.075000 0.0 0.0
1.080000 0.0 0.0
1.085000 0.0 0.0
1.090000 0.0 0.0
1.095000 0.0 0.0
1.100000 0.0 0.0
1.105000 0.0 0.0
1.110000 0.0 0.0
1.115000 0.0 0.0
1.120000 0.0 0.0
1.125000 0.0 0.0
1.130000 0.0 0.0
1.135000 0.0 0.0
1.140000 0.0 0.0
1.145000 0.0 0.0
1.150000 0.0 0.0
1.155000 0.0 0.0
1.160000 0.0 0.0
1.165000 0.0 0.0
1.170000 0.0 0.0
1.175000 0.0 0.0
1.180000 0.0 0.0
1.185000 0.0 0.0
1.190000 0.0 0.0
1.195000 0.0 0.0
1.200000 0.0 0.0
1.205000 0.0 0.0
1.210000 0.0 0.0
1.215000 0.0 0.0
1.220000 0.0 0.0
1.225000 0.0 0.0
1.230000 0.0 0.0
1.235000 0.0 0.0
1.240000 0.0 0.0
1.245000 0.0 0.0
1.250000 0.0 0.0
1.255000 0.0 0.0
1.260000 0.0 0.0
1.265000 0.0 0.0
1.270000 0.0 0.0
1.275000 0.0 0.0
1.280000 0.0 0.0
1.285000 0.0 0.0
1.290000 0.0 0.0
1.295000 0.0 0.0
1.300000 0.0 0.0
1.305000 0.0 0.0
1.310000 0.0 0.0
1.315000 0.0 0.0
1.320000 0.0 0.0
1.325000 0.0 0.0
1.330000 0.0 0.0
1.335000 0.0 0.0
1.340000 0.0 0.0
1.345000 0.0 0.0
1.350000 0.0 0.0
1.355000 0.0 0.0
1.360000 0.0 0.0
1.365000 0.0 0.0
1.370000 0.0 0.0
1.375000 0.0 0.0
1.380000 0.0 0.0
1.385000 0.0 0.0
1.390000 0.0 0.0
1.395000 0.0 0.0
1.400000 0.0 0.0
1.405000 0.0 0.0
1.410000 0.0 0.0
1.415000 0.0 0.0
1.420000 0.0 0.0
1.425000 0.0 0.0
1.430000 0.0 0.0
1.435000 0.0 0.0
1.440000 0.0 0.0
1.445000 0.0 0.0
1.450000 0.0 0.0
1.455000 0.0 0.0
1.460000 0.0 0.0
1.465000 0.0 0.0
1.470000 0.0 0.0
1.475000 0.0 0.0
1.480000 0.0 0.0
1.485000 0.0 0.0
1.490000 0.0 0.0
1.495000 0.0 0.0
1.500000 0.0 0.0
1.505000 0.0 0.0
1.510000 0.0 0.0
1.515000 0.0 0.0
1.520000 0.0 0.0
1.525000 0.0 0.0
1.530000 0.0 0.0
1.535000 0.0 0.0
1.540000 0.0 0.0
1.545000 0.0 0.0
1.550000 0.0 0.0
1.555000 0.0 0.0
1.560000 0.0 0.0
1.565000 0.0 0.0
1.570000 0.0 0.0
1.575000 0.0 0.0
1.580000 0.0 0.0
1.585000 0.0 0.0
1.590000 0.0 0.0
1.595000 0.0 0.0
1.600000 0.0 0.0
1.605000 0.0 0.0
1.610000 0.0 0.0
1.615000 0.0 0.0
1.620000 0.0 0.0
1.625000 0.0 0.0
1.630000 0.0 0.0
1.635000 0.0 0.0
1.640000 0.0 0.0
1.645000 0.0 0.0
1.650000 0.0 0.0
1.655000 0.0 0.0
1.660000 0.0 0.0
1.665000 0.0 0.0
1.670000 0.0 0.0
1.675000 0.0 0.0
1.680000 0.0 0.0
1.685000 0.0 0.0
1.690000 0.0 0.0
1.695000 0.0 0.0
1.700000 0.0 0.0
1.705000 0.0 0.0
1.710000 0.0 0.0
1.715000 0.0 0.0
1.720000 0.0 0.0
1.725000 0.0 0.0
1.730000 0.0 0.0
1.735000 0.0 0.0
1.740000 0.0 0.0
1.745000 0.0 0.0
1.750000 0.0 0.0
1.755000 0.0 0.0
1.760000 0.0 0.0
1.765000 0.0 0.0
1.770000 0.0 0.0
1.775000 0.0 0.0
1.780000 0.0 0.0
1.785000 0.0 0.0
1.790000 0.0 0.0
1.795000 0.0 0.0
1.800000 0.0 0.0
1.805000 0.0 0.0
1.810000 0.0 0.0
1.815000 0.0 0.0
1.820000 0.0 0.0
1.825000 0.0 0.0
1.830000 0.0 0.0
1.835000 0.0 0.0
1.840000 0.0 0.0
1.845000 0.0 0.0
1.850000 0.0 0.0
1.855000 0.0 0.0
1.860000 0.0 0.0
1.865000 0.0 0.0
1.870000 0.0 0.0
1.875000 0.0 0.0
1.880000 0.0 0.0
1.885000 0.0 0.0
1.890000 0.0 0.0
1.895000 0.0 0.0
1.900000 0.0 0.0
1.905000 0.0 0.0
1.910000 0.0 0.0
1.915000 0.0 0.0
1.920000 0.0 0.0
1.925000 0.0 0.0
1.930000 0.0 0.0
1.935000 0.0 0.0
1.940000 0.0 0.0
1.945000 0.0 0.0
1.950000 0.0 0.0
1.955000 0.0 0.0
1.960000 0.0 0.0
1.965000 0.0 0.0
1.970000 0.0 0.0
1.975000 0.0 0.0
1.980000 0.0 0.0
1.985000 0.0 0.0
1.990000 0.0 0.0
1.995000 0.0 0.0
2.000000 0.0 0.0
2.005000 0.0 0.0
2.010000 0.0 0.0
2.015000 0.0 0.0
2.020000 0.0 0.0
2.025000 0.0 0.0
2.030000 0.0 0.0
2.035000 0.0 0.0
2.040000 0.0 0.0
2.045000 0.0 0.0
2.050000 0.0 0.0
2.055000 0.0 0.0
2.060000 0.0 0.0
2.065000 0.0 0.0
2.070000 0.0 0.0
2.075000 0.0 0.0
2.080000 0.0 0.0
2.085000 0.0 0.0
2.090000 0.0 0.0
2.095000 0.0 0.0
2.100000 0.0 0.0
2.105000 0.0 0.0
2.110000 0.0 0.0
2.115000 0.0 0.0
2.120000 0.0 0.0
2.125000 0.0 0.0
2.130000 0.0 0.0
2.135000 0.0 0.0
2.140000 0.0 0.0
2.145000 0.0 0.0
2.150000 0.0 0.0
2.155000 0.0 0.0
2.160000 0.0 0.0
2.165000 0.0 0.0
2.170000 0.0 0.0
2.175000 0.0 0.0
2.180000 0.0 0.0
2.185000 0.0 0.0
2.190000 0.0 0.0
2.195000 0.0 0.0
2.200000 0.0 0.0
2.205000 0.0 0.0
2.210000 0.0 0.0
2.215000 0.0 0.0
2.220000 0.0 0.0
2.225000 0.0 0.0
2.230000 0.0 0.0
2.235000 0.0 0.0
2.240000 0.0 0.0
2.245000 0.0 0.0
2.250000 0.0 0.0
2.255000 0.0 0.0
2.260000 0.0 0.0
2.265000 0.0 0.0
2.270000 0.0 0.0
2.275000 0.0 0.0
2.280000 0.0 0.0
2.285000 0.0 0.0
2.290000 0.0 0.0
2.295000 0.0 0.0
2.300000 0.0 0.0
2.305000 0.0 0.0
2.310000 0.0 0.0
2.315000 0.0 0.0
2.320000 0.0 0.0
2.325000 0.0 0.0
2.330000 0.0 0.0
2.335000 0.0 0.0
2.340000 0.0 0.0
2.345000 0.0 0.0
2.350000 0.0 0.0
2.355000 0.0 0.0
2.360000 0.0 0.0
2.365000 0.0 0.0
2.370000 0.0 0.0
2.375000 0.0 0.0
2.380000 0.0 0.0
2.385000 0.0 0.0
2.390000 0.0 0.0
2.395000 0.0 0.0
2.400000 0.0 0.0
2.405000 0.0 0.0
2.410000 0.0 0.0
2.415000 0.0 0.0
2.420000 0.0 0.0
2.425000 0.0 0.0
2.430000 0.0 0.0
2.435000 0.0 0.0
2.440000 0.0 0.0
2.445000 0.0 0.0
2.450000 0.0 0.0
2.455000 0.0 0.0
2.460000 0.0 0.0
2.465000 0.0 0.0
2.470000 0.0 0.0
2.475000 0.0 0.0
2.480000 0.0 0.0
2.485000 0.0 0.0
2.490000 0.0 0.0
2.495000 0.0 0.0
2.500000 0.0 0.0
2.505000 0.0 0.0
2.510000 0.0 0.0
2.515000 0.0 0.0
2.520000 0.0 0.0
2.525000 0.0 0.0
2.530000 0.0 0.0
2.535000 0.0 0.0
2.540000 0.0 0.0
2.545000 0.0 0.0
2.550000 0.0 0.0
2.555000 0.0 0.0
2.560000 0.0 0.0
2.565000 0.0 0.0
2.570000 0.0 0.0
2.575000 0.0 0.0
2.580000 0.0 0.0
2.585000 0.0 0.0
2.590000 0.0 0.0
2.595000 0.0 0.0
2.600000 0.0 0.0
2.605000 0.0 0.0
2.610000 0.0 0.0
2.615000 0.0 0.0
2.620000 0.0 0.0
2.625000 0.0 0.0
2.630000 0.0 0.0
2.635000 0.0 0.0
2.640000 0.0 0.0
2.645000 0.0 0.0
2.650000 0.0 0.0
2.655000 0.0 0.0
2.660000 0.0 0.0
2.665000 0.0 0.0
2.670000 0.0 0.0
2.675000 0.0 0.0
2.680000 0.0 0.0
2.685000 0.0 0.0
2.690000 0.0 0.0
2.695000 0.0 0.0
2.700000 0.0 0.0
2.705000 0.0 0.0
2.710000 0.0 0.0
2.715000 0.0 0.0
2.720000 0.0 0.0
2.725000 0.0 0.0
2.730000 0.0 0.0
2.735000 0.0 0.0
2.740000 0.0 0.0
2.745000 0.0 0.0
2.750000 0.0 0.0
2.755000 0.0 0.0
2.760000 0.0 0.0
2.765000 0.0 0.0
2.770000 0.0 0.0
2.775000 0.0 0.0
2.780000 0.0 0.0
2.785000 0.0 0.0
2.790000 0.0 0.0
2.795000 0.0 0.0
2.800000 0.0 0.0
2.805000 0.0 0.0
2.810000 0.0 0.0
2.815000 0.0 0.0
2.820000 0.0 0.0
2.825000 0.0 0.0
2.830000 0.0 0.0
2.835000 0.0 0.0
2.840000 0.0 0.0
2.845000 0.0 0.0
2.850000 0.0 0.0
2.855000 0.0 0.0
2.860000 0.0 0.0
[...]
      <PointData Scalars="Temperature">
        <DataArray type="Float32" Name="Temperature" format="ascii">
308.150000
307.038713
305.927738
304.817388
303.707976
302.599811
301.493205
300.388466
299.285902
298.185817
297.088516
295.994299
294.903466
293.816313
292.733132
291.654214
290.579845
289.510310
288.445888
287.386855
286.333484
285.286044
284.244799
283.210011
282.181936
281.160829
280.146940
279.140513
278.141794
277.151020
276.168429
275.194307
274.235523
273.481001
273.149566
272.976231
272.856196
272.760471
272.678114
272.603967
272.535227
272.470224
272.407894
272.347523
272.288620
272.230834
272.173912
272.117667
272.061960
272.006688
271.951773
271.897155
271.842790
271.788644
271.734692
271.680914
271.627295
271.573825
271.520496
271.467302
271.414240
271.361305
271.308498
271.255816
271.203260
271.150829
271.098524
271.046346
270.994296
270.942375
270.890584
270.838925
270.787398
270.736006
270.684750
270.633630
270.582650
270.531810
270.481112
270.430558
270.380148
270.329885
270.279770
270.229804
270.179990
270.130328
270.080819
270.031466
269.982270
269.933232
269.884354
269.835637
269.787082
269.738691
269.690464
269.642405
269.594512
269.546789
269.499236
269.451854
269.404645
269.357610
269.310750
269.264067
269.217560
269.171233
269.125085
269.079117
269.033332
268.987729
268.942311
268.897077
268.852030
268.807169
268.762497
268.718013
268.673719
268.629616
268.585705
268.541986
268.498461
268.455129
268.411993
268.369053
268.326310
268.283763
268.241415
268.199266
268.157317
268.115568
268.074020
268.032673
267.991529
267.950587
267.909849
267.869315
267.828986
267.788861
267.748943
267.709230
267.669724
267.630425
267.591334
267.552450
267.513775
267.475309
267.437052
267.399004
267.361166
267.323538
267.286121
267.248914
267.211918
267.175133
267.138560
267.102198
267.066049
267.030111
266.994385
266.958871
266.923570
266.888481
266.853605
266.818942
266.784491
266.750253
266.716227
266.682415
266.648815
266.615427
266.582252
266.549290
266.516540
266.484003
266.451678
266.419565
266.387663
266.355974
266.324496
266.293230
266.262175
266.231330
266.200697
266.170274
266.140061
266.110058
266.080265
266.050681
266.021306
265.992140
265.963182
265.934432
265.905890
265.877554
265.849426
265.821503
265.793787
265.766276
265.738969
265.711868
265.684970
265.658276
265.631785
265.605496
265.579409
265.553524
265.527839
265.502355
265.477070
265.451984
265.427097
265.402408
265.377916
265.353620
265.329521
265.305616
265.281907
265.258391
265.235069
265.211939
265.189001
265.166254
265.143698
265.121331
265.099153
265.077164
265.055362
265.033746
265.012317
264.991072
264.970013
264.949136
264.928443
264.907931
264.887600
264.867450
264.847479
264.827687
264.808073
264.788636
264.769375
264.750288
264.731377
264.712639
264.694073
264.675679
264.657456
264.639403
264.621519
264.603803
264.586255
264.568872
264.551656
264.534603
264.517714
264.500988
264.484424
264.468020
264.451776
264.435691
264.419764
264.403994
264.388380
264.372921
264.357616
264.342464
264.327465
264.312616
264.297919
264.283370
264.268970
264.254717
264.240610
264.226649
264.212833
264.199160
264.185629
264.172240
264.158991
264.145882
264.132912
264.120079
264.107383
264.094823
264.082397
264.070105
264.057946
264.045919
264.034022
264.022255
264.010617
263.999107
263.987723
263.976466
263.965333
263.954325
263.943439
263.932676
263.922033
263.911511
263.901108
263.890823
263.880655
263.870603
263.860667
263.850845
263.841136
263.831540
263.822055
263.812681
263.803417
263.794261
263.785213
263.776272
263.767437
263.758706
263.750080
263.741557
263.733136
263.724816
263.716596
263.708476
263.700455
263.692531
263.684704
263.676973
263.669337
263.661795
263.654346
263.646990
263.639725
263.632550
263.625466
263.618470
263.611562
263.604741
263.598007
263.591358
263.584794
263.578313
263.571916
263.565600
263.559366
263.553212
263.547138
263.541143
263.535226
263.529386
263.523623
263.517935
263.512322
263.506784
263.501318
263.495925
263.490604
263.485354
263.480174
263.475064
263.470023
263.465049
263.460143
263.455303
263.450529
263.445821
263.441176
263.436596
263.432078
263.427622
263.423228
263.418895
263.414623
263.410409
263.406255
263.402158
263.398120
263.394138
263.390212
263.386341
263.382526
263.378765
263.375057
263.371402
263.367800
263.364249
263.360750
263.357301
263.353902
263.350552
263.347251
263.343998
263.340792
263.337634
263.334522
263.331455
263.328434
263.325458
263.322525
263.319636
263.316791
263.313987
263.311226
263.308506
263.305827
263.303188
263.300590
263.298030
263.295509
263.293027
263.290583
263.288176
263.285805
263.283472
263.281174
263.278911
263.276684
263.274491
263.272332
263.270207
263.268115
263.266055
263.264028
263.262033
263.260069
263.258136
263.256233
263.254361
263.252519
263.250705
263.248921
263.247165
263.245438
263.243738
263.242065
263.240420
263.238801
263.237208
263.235641
263.234100
263.232584
263.231092
263.229625
263.228182
263.226763
263.225367
263.223994
263.222644
263.221316
263.220010
263.218726
263.217463
263.216222
263.215001
263.213801
263.212621
263.211461
263.210320
263.209199
263.208097
263.207013
263.205948
263.204901
263.203872
263.202861
263.201867
263.200890
263.199930
263.198986
263.198059
263.197148
263.196253
263.195373
263.194508
263.193659
263.192825
263.192005
263.191199
263.190408
263.189631
263.188867
263.188117
263.187381
263.186657
263.185946
263.185248
263.184563
263.183889
263.183228
263.182579
263.181941
263.181315
263.180700
263.180096
263.179504
263.178922
263.178350
263.177789
263.177239
263.176698
263.176167
263.175647
263.175135
263.174633
263.174141
263.173657
263.173183
263.172717
263.172260
263.171811
263.171371
263.170939
263.170515
263.170099
263.169691
263.169291
263.168898
263.168513
263.168135
263.167764
263.167400
263.167043
263.166693
263.166350
263.166013
263.165682
263.165358
263.165040
263.164729
263.164423
263.164123
263.163829
263.163541
263.163259
263.162981
263.162710
263.162443
263.162182
263.161926
263.161675
263.161429
263.161187
263.160951
263.160719
263.160492
263.160269
263.160051
263.159837
263.159627
263.159421
263.159220
263.159023
263.158829
263.158640
263.158454
263.158272
263.158094
263.157919
263.157748
263.157580
263.157416
263.157255
263.157097
263.156943
263.156791
263.156643
263.156498
263.156356
263.156216
263.156080
263.155946
263.155816
263.155688
263.155562
263.155439
263.155319
263.155201
263.155086
263.154973
263.154862
263.154754
263.154648
263.154544
263.154443
263.154343
263.154246
263.154151
263.154058
263.153966
263.153877
263.153789
263.153704
263.153620
263.153538
263.153458
263.153379
263.153303
263.153228
263.153154
263.153082
263.153012
263.152943
263.152875
263.152809
263.152745
263.152682
263.152620
263.152560
263.152501
263.152443
263.152386
263.152331
263.152277
263.152224
263.152172
263.152122
263.152072
263.152024
263.151977
263.151931
263.151885
263.151841
263.151798
263.151756
263.151714
263.151674
263.151634
263.151596
263.151558
263.151521
263.151485
263.151450
263.151415
263.151382
263.151349
263.151317
263.151285
263.151255
263.151225
263.151195
263.151167
263.151139
263.151111
263.151084
263.151058
263.151033
263.151008
263.150983
263.150960
263.150936
263.150914
263.150891
263.150870
263.150849
263.150828
263.150808
263.150788
263.150769
263.150750
263.150731
263.150713
263.150696
263.150679
263.150662
263.150646
263.150630
263.150614
263.150599
263.150584
263.150570
263.150555
263.150542
263.150528
263.150515
263.150502
263.150490
263.150477
263.150465
263.150454
263.150442
263.150431
263.150420
263.150410
263.150399
263.150389
263.150379
263.150370
263.150360
263.150351
263.150342
263.150334
263.150325
263.150317
263.150309
263.150301
263.150293
263.150286
263.150278
263.150271
263.150264
263.150257
263.150251
263.150244
263.150238
263.150232
263.150226
263.150220
263.150214
263.150208
263.150203
263.150198
263.150193
263.150187
263.150183
263.150178
263.150173
263.150168
263.150164
263.150160
263.150155
263.150151
263.150147
263.150143
263.150139
263.150136
263.150132
263.150128
263.150125
263.150122
263.150118
263.150115
263.150112
263.150109
263.150106
263.150103
263.150100
263.150097
263.150094
263.150092
263.150089
263.150087
263.150084
263.150082
263.150080
263.150077
263.150075
263.150073
263.150071
263.150069
263.150067
263.150065
263.150063
263.150061
263.150059
263.150057
263.150055
263.150054
263.150052
263.150050
263.150049
263.150047
263.150045
263.150044
263.150042
263.150041
263.150040
263.150038
263.150037
263.150036
263.150034
263.150033
263.150032
263.150030
263.150029
263.150028
263.150027
263.150026
263.150025
263.150023
263.150022
263.150021
263.150020
263.150019
263.150018
263.150017
263.150016
263.150015
263.150014
263.150013
263.150012
263.150011
263.150010
263.150009
263.150008
263.150007
263.150006
263.150005
263.150005
263.150004
263.150003
263.150002
263.150001
263.150000
        </DataArray>
      </PointData>
      <CellData>
      </CellData>
    </Piece>
  </UnstructuredGrid>
</VTKFile>
