<?xml version="1.0"?>
<VTKFile type="UnstructuredGrid" version="0.1" byte_order="LittleEndian">
  <UnstructuredGrid>
    <Piece NumberOfPoints="801" NumberOfCells="800">
      <Points>
        <DataArray type="Float32" NumberOfComponents="3" format="ascii">
0.000000 0.0 0.0
0.005000 0.0 0.0
0.010000 0.0 0.0
0.015000 0.0 0.0
0.020000 0.0 0.0
0.025000 0.0 0.0
0.030000 0.0 0.0
0.035000 0.0 0.0
0.040000 0.0 0.0
0.045000 0.0 0.0
0.050000 0.0 0.0
0.055000 0.0 0.0
0.060000 0.0 0.0
0.065000 0.0 0.0
0.070000 0.0 0.0
0.075000 0.0 0.0
0.080000 0.0 0.0
0.085000 0.0 0.0
0.090000 0.0 0.0
0.095000 0.0 0.0
0.100000 0.0 0.0
0.105000 0.0 0.0
0.110000 0.0 0.0
0.115000 0.0 0.0
0.120000 0.0 0.0
0.125000 0.0 0.0
0.130000 0.0 0.0
0.135000 0.0 0.0
0.140000 0.0 0.0
0.145000 0.0 0.0
0.150000 0.0 0.0
0.155000 0.0 0.0
0.160000 0.0 0.0
0.165000 0.0 0.0
0.170000 0.0 0.0
0.175000 0.0 0.0
0.180000 0.0 0.0
0.185000 0.0 0.0
0.190000 0.0 0.0
0.195000 0.0 0.0
0.200000 0.0 0.0
0.205000 0.0 0.0
0.210000 0.0 0.0
0.215000 0.0 0.0
0.220000 0.0 0.0
0.225000 0.0 0.0
0.230000 0.0 0.0
0.235000 0.0 0.0
0.240000 0.0 0.0
0.245000 0.0 0.0
0.250000 0.0 0.0
0.255000 0.0 0.0
0.260000 0.0 0.0
0.265000 0.0 0.0
0.270000 0.0 0.0
0.275000 0.0 0.0
0.280000 0.0 0.0
0.285000 0.0 0.0
0.290000 0.0 0.0
0.295000 0.0 0.0
0.300000 0.0 0.0
0.305000 0.0 0.0
0.310000 0.0 0.0
0.315000 0.0 0.0
0.320000 0.0 0.0
0.325000 0.0 0.0
0.330000 0.0 0.0
0.335000 0.0 0.0
0.340000 0.0 0.0
0.345000 0.0 0.0
0.350000 0.0 0.0
0.355000 0.0 0.0
0.360000 0.0 0.0
0.365000 0.0 0.0
0.370000 0.0 0.0
0.375000 0.0 0.0
0.380000 0.0 0.0
0.385000 0.0 0.0
0.390000 0.0 0.0
0.395000 0.0 0.0
0.400000 0.0 0.0
0.405000 0.0 0.0
0.410000 0.0 0.0
0.415000 0.0 0.0
0.420000 0.0 0.0
0.425000 0.0 0.0
0.430000 0.0 0.0
0.435000 0.0 0.0
0.440000 0.0 0.0
0.445000 0.0 0.0
0.450000 0.0 0.0
0.455000 0.0 0.0
0.460000 0.0 0.0
0.465000 0.0 0.0
0.470000 0.0 0.0
0.475000 0.0 0.0
0.480000 0.0 0.0
0.485000 0.0 0.0
0.490000 0.0 0.0
0.495000 0.0 0.0
0.500000 0.0 0.0
0.505000 0.0 0.0
0.510000 0.0 0.0
0.515000 0.0 0.0
0.520000 0.0 0.0
0.525000 0.0 0.0
0.530000 0.0 0.0
0.535000 0.0 0.0
0.540000 0.0 0.0
0.545000 0.0 0.0
0.550000 0.0 0.0
0.555000 0.0 0.0
0.560000 0.0 0.0
0.565000 0.0 0.0
0.570000 0.0 0.0
0.575000 0.0 0.0
0.580000 0.0 0.0
0.585000 0.0 0.0
0.590000 0.0 0.0
0.595000 0.0 0.0
0.600000 0.0 0.0
0.605000 0.0 0.0
0.610000 0.0 0.0
0.615000 0.0 0.0
0.620000 0.0 0.0
0.625000 0.0 0.0
0.630000 0.0 0.0
0.635000 0.0 0.0
0.640000 0.0 0.0
0.645000 0.0 0.0
0.650000 0.0 0.0
0.655000 0.0 0.0
0.660000 0.0 0.0
0.665000 0.0 0.0
0.670000 0.0 0.0
0.675000 0.0 0.0
0.680000 0.0 0.0
0.685000 0.0 0.0
0.690000 0.0 0.0
0.695000 0.0 0.0
0.700000 0.0 0.0
0.705000 0.0 0.0
0.710000 0.0 0.0
0.715000 0.0 0.0
0.720000 0.0 0.0
0.725000 0.0 0.0
0.730000 0.0 0.0
0.735000 0.0 0.0
0.740000 0.0 0.0
0.745000 0.0 0.0
0.750000 0.0 0.0
0.755000 0.0 0.0
0.760000 0.0 0.0
0.765000 0.0 0.0
0.770000 0.0 0.0
0.775000 0.0 0.0
0.780000 0.0 0.0
0.785000 0.0 0.0
0.790000 0.0 0.0
0.795000 0.0 0.0
0.800000 0.0 0.0
0.805000 0.0 0.0
0.810000 0.0 0.0
0.815000 0.0 0.0
0.820000 0.0 0.0
0.825000 0.0 0.0
0.830000 0.0 0.0
0.835000 0.0 0.0
0.840000 0.0 0.0
0.845000 0.0 0.0
0.850000 0.0 0.0
0.855000 0.0 0.0
0.860000 0.0 0.0
0.865000 0.0 0.0
0.870000 0.0 0.0
0.875000 0.0 0.0
0.880000 0.0 0.0
0.885000 0.0 0.0
0.890000 0.0 0.0
0.895000 0.0 0.0
0.900000 0.0 0.0
0.905000 0.0 0.0
0.910000 0.0 0.0
0.915000 0.0 0.0
0.920000 0.0 0.0
0.925000 0.0 0.0
0.930000 0.0 0.0
0.935000 0.0 0.0
0.940000 0.0 0.0
0.945000 0.0 0.0
0.950000 0.0 0.0
0.955000 0.0 0.0
0.960000 0.0 0.0
0.965000 0.0 0.0
0.970000 0.0 0.0
0.975000 0.0 0.0
0.980000 0.0 0.0
0.985000 0.0 0.0
0.990000 0.0 0.0
0.995000 0.0 0.0
1.000000 0.0 0.0
1.005000 0.0 0.0
1.010000 0.0 0.0
1.015000 0.0 0.0
1.020000 0.0 0.0
1.025000 0.0 0.0
1.030000 0.0 0.0
1.035000 0.0 0.0
1.040000 0.0 0.0
1.045000 0.0 0.0
1.050000 0.0 0.0
1.055000 0.0 0.0
1.060000 0.0 0.0
1.065000 0.0 0.0
1.070000 0.0 0.0
1.075000 0.0 0.0
1.080000 0.0 0.0
1.085000 0.0 0.0
1.090000 0.0 0.0
1.095000 0.0 0.0
1.100000 0.0 0.0
1.105000 0.0 0.0
1.110000 0.0 0.0
1.115000 0.0 0.0
1.120000 0.0 0.0
1.125000 0.0 0.0
1.130000 0.0 0.0
1.135000 0.0 0.0
1.140000 0.0 0.0
1.145000 0.0 0.0
1.150000 0.0 0.0
1.155000 0.0 0.0
1.160000 0.0 0.0
1.165000 0.0 0.0
1.170000 0.0 0.0
1.175000 0.0 0.0
1.180000 0.0 0.0
1.185000 0.0 0.0
1.190000 0.0 0.0
1.195000 0.0 0.0
1.200000 0.0 0.0
1.205000 0.0 0.0
1.210000 0.0 0.0
1.215000 0.0 0.0
1.220000 0.0 0.0
1.225000 0.0 0.0
1.230000 0.0 0.0
1.235000 0.0 0.0
1.240000 0.0 0.0
1.245000 0.0 0.0
1.250000 0.0 0.0
1.255000 0.0 0.0
1.260000 0.0 0.0
1.265000 0.0 0.0
1.270000 0.0 0.0
1.275000 0.0 0.0
1.280000 0.0 0.0
1.285000 0.0 0.0
1.290000 0.0 0.0
1.295000 0.0 0.0
1.300000 0.0 0.0
1.305000 0.0 0.0
1.310000 0.0 0.0
1.315000 0.0 0.0
1.320000 0.0 0.0
1.325000 0.0 0.0
1.330000 0.0 0.0
1.335000 0.0 0.0
1.340000 0.0 0.0
1.345000 0.0 0.0
1.350000 0.0 0.0
1.355000 0.0 0.0
1.360000 0.0 0.0
1.365000 0.0 0.0
1.370000 0.0 0.0
1.375000 0.0 0.0
1.380000 0.0 0.0
1.385000 0.0 0.0
1.390000 0.0 0.0
1.395000 0.0 0.0
1.400000 0.0 0.0
1.405000 0.0 0.0
1.410000 0.0 0.0
1.415000 0.0 0.0
1.420000 0.0 0.0
1.425000 0.0 0.0
1.430000 0.0 0.0
1.435000 0.0 0.0
1.440000 0.0 0.0
1.445000 0.0 0.0
1.450000 0.0 0.0
1.455000 0.0 0.0
1.460000 0.0 0.0
1.465000 0.0 0.0
1.470000 0.0 0.0
1.475000 0.0 0.0
1.480000 0.0 0.0
1.485000 0.0 0.0
1.490000 0.0 0.0
1.495000 0.0 0.0
1.500000 0.0 0.0
1.505000 0.0 0.0
1.510000 0.0 0.0
1.515000 0.0 0.0
1.520000 0.0 0.0
1.525000 0.0 0.0
1.530000 0.0 0.0
1.535000 0.0 0.0
1.540000 0.0 0.0
1.545000 0.0 0.0
1.550000 0.0 0.0
1.555000 0.0 0.0
1.560000 0.0 0.0
1.565000 0.0 0.0
1.570000 0.0 0.0
1.575000 0.0 0.0
1.580000 0.0 0.0
1.585000 0.0 0.0
1.590000 0.0 0.0
1.595000 0.0 0.0
1.600000 0.0 0.0
1.605000 0.0 0.0
1.610000 0.0 0.0
1.615000 0.0 0.0
1.620000 0.0 0.0
1.625000 0.0 0.0
1.630000 0.0 0.0
1.635000 0.0 0.0
1.640000 0.0 0.0
1.645000 0.0 0.0
1.650000 0.0 0.0
1.655000 0.0 0.0
1.660000 0.0 0.0
1.665000 0.0 0.0
1.670000 0.0 0.0
1.675000 0.0 0.0
1.680000 0.0 0.0
1.685000 0.0 0.0
1.690000 0.0 0.0
1.695000 0.0 0.0
1.700000 0.0 0.0
1.705000 0.0 0.0
1.710000 0.0 0.0
1.715000 0.0 0.0
1.720000 0.0 0.0
1.725000 0.0 0.0
1.730000 0.0 0.0
1.735000 0.0 0.0
1.740000 0.0 0.0
1.745000 0.0 0.0
1.750000 0.0 0.0
1.755000 0.0 0.0
1.760000 0.0 0.0
1.765000 0.0 0.0
1.770000 0.0 0.0
1.775000 0.0 0.0
1.780000 0.0 0.0
1.785000 0.0 0.0
1.790000 0.0 0.0
1.795000 0.0 0.0
1.800000 0.0 0.0
1.805000 0.0 0.0
1.810000 0.0 0.0
1.815000 0.0 0.0
1.820000 0.0 0.0
1.825000 0.0 0.0
1.830000 0.0 0.0
1.835000 0.0 0.0
1.840000 0.0 0.0
1.845000 0.0 0.0
1.850000 0.0 0.0
1.855000 0.0 0.0
1.860000 0.0 0.0
1.865000 0.0 0.0
1.870000 0.0 0.0
1.875000 0.0 0.0
1.880000 0.0 0.0
1.885000 0.0 0.0
1.890000 0.0 0.0
1.895000 0.0 0.0
1.900000 0.0 0.0
1.905000 0.0 0.0
1.910000 0.0 0.0
1.915000 0.0 0.0
1.920000 0.0 0.0
1.925000 0.0 0.0
1.930000 0.0 0.0
1.935000 0.0 0.0
1.940000 0.0 0.0
1.945000 0.0 0.0
1.950000 0.0 0.0
1.955000 0.0 0.0
1.960000 0.0 0.0
1.965000 0.0 0.0
1.970000 0.0 0.0
1.975000 0.0 0.0
1.980000 0.0 0.0
1.985000 0.0 0.0
1.990000 0.0 0.0
1.995000 0.0 0.0
2.000000 0.0 0.0
2.005000 0.0 0.0
2.010000 0.0 0.0
2.015000 0.0 0.0
2.020000 0.0 0.0
2.025000 0.0 0.0
2.030000 0.0 0.0
2.035000 0.0 0.0
2.040000 0.0 0.0
2.045000 0.0 0.0
2.050000 0.0 0.0
2.055000 0.0 0.0
2.060000 0.0 0.0
2.065000 0.0 0.0
2.070000 0.0 0.0
2.075000 0.0 0.0
2.080000 0.0 0.0
2.085000 0.0 0.0
2.090000 0.0 0.0
2.095000 0.0 0.0
2.100000 0.0 0.0
2.105000 0.0 0.0
2.110000 0.0 0.0
2.115000 0.0 0.0
2.120000 0.0 0.0
2.125000 0.0 0.0
2.130000 0.0 0.0
2.135000 0.0 0.0
2.140000 0.0 0.0
2.145000 0.0 0.0
2.150000 0.0 0.0
2.155000 0.0 0.0
2.160000 0.0 0.0
2.165000 0.0 0.0
2.170000 0.0 0.0
2.175000 0.0 0.0
2.180000 0.0 0.0
2.185000 0.0 0.0
2.190000 0.0 0.0
2.195000 0.0 0.0
2.200000 0.0 0.0
2.205000 0.0 0.0
2.210000 0.0 0.0
2.215000 0.0 0.0
2.220000 0.0 0.0
2.225000 0.0 0.0
2.230000 0.0 0.0
2.235000 0.0 0.0
2.240000 0.0 0.0
2.245000 0.0 0.0
2.250000 0.0 0.0
2.255000 0.0 0.0
2.260000 0.0 0.0
2.265000 0.0 0.0
2.270000 0.0 0.0
2.275000 0.0 0.0
2.280000 0.0 0.0
2.285000 0.0 0.0
2.290000 0.0 0.0
2.295000 0.0 0.0
2.300000 0.0 0.0
2.305000 0.0 0.0
2.310000 0.0 0.0
2.315000 0.0 0.0
2.320000 0.0 0.0
2.325000 0.0 0.0
2.330000 0.0 0.0
2.335000 0.0 0.0
2.340000 0.0 0.0
2.345000 0.0 0.0
2.350000 0.0 0.0
2.355000 0.0 0.0
2.360000 0.0 0.0
2.365000 0.0 0.0
2.370000 0.0 0.0
2.375000 0.0 0.0
2.380000 0.0 0.0
2.385000 0.0 0.0
2.390000 0.0 0.0
2.395000 0.0 0.0
2.400000 0.0 0.0
2.405000 0.0 0.0
2.410000 0.0 0.0
2.415000 0.0 0.0
2.420000 0.0 0.0
2.425000 0.0 0.0
2.430000 0.0 0.0
2.435000 0.0 0.0
2.440000 0.0 0.0
2.445000 0.0 0.0
2.450000 0.0 0.0
2.455000 0.0 0.0
2.460000 0.0 0.0
2.465000 0.0 0.0
2.470000 0.0 0.0
2.475000 0.0 0.0
2.480000 0.0 0.0
2.485000 0.0 0.0
2.490000 0.0 0.0
2.495000 0.0 0.0
2.500000 0.0 0.0
2.505000 0.0 0.0
2.510000 0.0 0.0
2.515000 0.0 0.0
2.520000 0.0 0.0
2.525000 0.0 0.0
2.530000 0.0 0.0
2.535000 0.0 0.0
2.540000 0.0 0.0
2.545000 0.0 0.0
2.550000 0.0 0.0
2.555000 0.0 0.0
2.560000 0.0 0.0
2.565000 0.0 0.0
2.570000 0.0 0.0
2.575000 0.0 0.0
2.580000 0.0 0.0
2.585000 0.0 0.0
2.590000 0.0 0.0
2.595000 0.0 0.0
2.600000 0.0 0.0
2.605000 0.0 0.0
2.610000 0.0 0.0
2.615000 0.0 0.0
2.620000 0.0 0.0
2.625000 0.0 0.0
2.630000 0.0 0.0
2.635000 0.0 0.0
2.640000 0.0 0.0
2.645000 0.0 0.0
2.650000 0.0 0.0
2.655000 0.0 0.0
2.660000 0.0 0.0
2.665000 0.0 0.0
2.670000 0.0 0.0
2.675000 0.0 0.0
2.680000 0.0 0.0
2.685000 0.0 0.0
2.690000 0.0 0.0
2.695000 0.0 0.0
2.700000 0.0 0.0
2.705000 0.0 0.0
2.710000 0.0 0.0
2.715000 0.0 0.0
2.720000 0.0 0.0
2.725000 0.0 0.0
2.730000 0.0 0.0
2.735000 0.0 0.0
2.740000 0.0 0.0
2.745000 0.0 0.0
2.750000 0.0 0.0
2.755000 0.0 0.0
2.760000 0.0 0.0
2.765000 0.0 0.0
2.770000 0.0 0.0
2.775000 0.0 0.0
2.780000 0.0 0.0
2.785000 0.0 0.0
2.790000 0.0 0.0
2.795000 0.0 0.0
2.800000 0.0 0.0
2.805000 0.0 0.0
2.810000 0.0 0.0
2.815000 0.0 0.0
2.820000 0.0 0.0
2.825000 0.0 0.0
2.830000 0.0 0.0
2.835000 0.0 0.0
2.840000 0.0 0.0
2.845000 0.0 0.0
2.850000 0.0 0.0
2.855000 0.0 0.0
2.860000 0.0 0.0
[...]
      <PointData Scalars="Temperature">
        <DataArray type="Float32" Name="Temperature" format="ascii">
308.150000
307.219575
306.289336
305.359468
304.430158
303.501590
302.573950
301.647421
300.722188
299.798433
298.876337
297.956084
297.037851
296.121818
295.208163
294.297062
293.388690
292.483219
291.580821
290.681665
289.785921
288.893752
288.005324
287.120797
286.240330
285.364081
284.492203
283.624848
282.762165
281.904298
281.051390
280.203580
279.361003
278.523791
277.692071
276.865967
276.045597
275.231111
274.424603
273.691433
273.277795
273.075265
272.946430
272.849248
272.768823
272.698494
272.634773
272.575627
272.519776
272.466370
272.414819
272.364702
272.315708
272.267606
272.220219
272.173412
272.127079
272.081139
272.035527
271.990191
271.945091
271.900195
271.855476
271.810915
271.766495
271.722203
271.678029
271.633966
271.590006
271.546145
271.502379
271.458704
271.415120
271.371624
271.328215
271.284892
271.241655
271.198505
271.155440
271.112462
271.069570
271.026765
270.984047
270.941418
270.898878
270.856427
270.814067
270.771797
270.729619
270.687534
270.645543
270.603646
270.561844
270.520138
270.478528
270.437017
270.395603
270.354290
270.313076
270.271963
270.230951
270.190043
270.149237
270.108536
270.067940
270.027449
269.987065
269.946788
269.906620
269.866559
269.826609
269.786769
269.747039
269.707422
269.667916
269.628524
269.589246
269.550082
269.511034
269.472101
269.433285
269.394586
269.356005
269.317543
269.279199
269.240976
269.202873
269.164891
269.127030
269.089292
269.051676
269.014184
268.976816
268.939572
268.902454
268.865461
268.828594
268.791854
268.755241
268.718756
268.682399
268.646171
268.610072
268.574102
268.538263
268.502555
268.466977
268.431531
268.396217
268.361035
268.325986
268.291071
268.256289
268.221641
268.187127
268.152748
268.118504
268.084396
268.050423
268.016587
267.982887
267.949324
267.915899
267.882610
267.849460
267.816447
267.783573
267.750838
267.718241
267.685784
267.653466
267.621287
267.589249
267.557350
267.525592
267.493975
267.462498
267.431162
267.399967
267.368913
267.338001
267.307230
267.276602
267.246115
267.215770
267.185567
267.155506
267.125588
267.095813
267.066180
267.036689
267.007342
266.978137
266.949075
266.920156
266.891380
266.862747
266.834257
266.805910
266.777706
266.749645
266.721728
266.693953
266.666322
266.638834
266.611488
266.584286
266.557227
266.530310
266.503537
266.476906
266.450418
266.424072
266.397870
266.371809
266.345891
266.320115
266.294482
266.268990
266.243641
266.218433
266.193366
266.168441
266.143658
266.119016
266.094514
266.070154
266.045934
266.021854
265.997915
265.974116
265.950457
265.926938
265.903557
265.880317
265.857215
265.834252
265.811427
265.788741
265.766192
265.743782
265.721509
265.699373
265.677374
265.655512
265.633786
265.612197
265.590743
265.569425
265.548241
265.527193
265.506280
265.485500
265.464855
265.444343
265.423964
265.403719
265.383605
265.363625
265.343776
265.324058
265.304472
265.285016
265.265691
265.246496
265.227431
265.208495
265.189687
265.171009
265.152458
265.134035
265.115739
265.097571
265.079528
265.061612
265.043821
265.026156
265.008615
264.991199
264.973907
264.956738
264.939692
264.922768
264.905967
264.889288
264.872730
264.856292
264.839975
264.823778
264.807700
264.791741
264.775901
264.760179
264.744574
264.729086
264.713714
264.698459
264.683320
264.668295
264.653385
264.638589
264.623907
264.609338
264.594882
264.580537
264.566305
264.552183
264.538172
264.524271
264.510480
264.496798
264.483224
264.469759
264.456401
264.443150
264.430005
264.416967
264.404034
264.391206
264.378482
264.365862
264.353346
264.340932
264.328621
264.316411
264.304303
264.292296
264.280388
264.268581
264.256872
264.245262
264.233750
264.222336
264.211018
264.199797
264.188672
264.177643
264.166708
264.155867
264.145121
264.134467
264.123906
264.113437
264.103060
264.092774
264.082579
264.072473
264.062457
264.052530
264.042691
264.032940
264.023277
264.013700
264.004209
263.994804
263.985485
263.976249
263.967098
263.958031
263.949047
263.940145
263.931325
263.922586
263.913928
263.905351
263.896854
263.888436
263.880096
263.871835
263.863652
263.855546
263.847516
263.839563
263.831685
263.823883
263.816155
263.808501
263.800921
263.793413
263.785979
263.778616
263.771325
263.764105
263.756955
263.749875
263.742865
263.735924
263.729051
263.722246
263.715509
263.708838
263.702234
263.695696
263.689224
263.682816
263.676473
263.670194
263.663978
263.657826
263.651736
263.645708
263.639741
263.633836
263.627991
263.622207
263.616482
263.610816
263.605209
263.599661
263.594170
263.588736
263.583360
263.578039
263.572775
263.567566
263.562412
263.557313
263.552268
263.547276
263.542338
263.537453
263.532620
263.527838
263.523109
263.518430
263.513802
263.509224
263.504696
263.500217
263.495787
263.491405
263.487072
263.482786
263.478547
263.474355
263.470210
263.466110
263.462056
263.458048
263.454083
263.450164
263.446288
263.442456
263.438667
263.434920
263.431216
263.427554
263.423934
263.420355
263.416817
263.413319
263.409861
263.406443
263.403064
263.399724
263.396423
263.393160
263.389935
263.386748
263.383598
263.380484
263.377407
263.374366
263.371361
263.368391
263.365456
263.362556
263.359690
263.356859
263.354061
263.351296
263.348565
263.345866
263.343200
263.340565
263.337963
263.335391
263.332851
263.330342
263.327863
263.325415
263.322996
263.320607
263.318247
263.315916
263.313614
263.311340
263.309094
263.306876
263.304685
263.302522
263.300386
263.298276
263.296192
263.294135
263.292103
263.290097
263.288117
263.286161
263.284230
263.282323
263.280441
263.278582
263.276747
263.274936
263.273147
263.271382
263.269639
263.267919
263.266221
263.264545
263.262890
263.261257
263.259645
263.258054
263.256484
263.254934
263.253405
263.251895
263.250405
263.248935
263.247485
263.246053
263.244640
263.243247
263.241871
263.240514
263.239175
263.237854
263.236550
263.235264
263.233995
263.232743
263.231509
263.230290
263.229088
263.227903
263.226733
263.225580
263.224442
263.223320
263.222212
263.221121
263.220044
263.218981
263.217934
263.216901
263.215882
263.214877
263.213886
263.212909
263.211945
263.210995
263.210058
263.209134
263.208223
263.207325
263.206440
263.205567
263.204706
263.203857
263.203021
263.202196
263.201383
263.200581
263.199791
263.199012
263.198244
263.197487
263.196741
263.196006
263.195281
263.194567
263.193863
263.193169
263.192485
263.191812
263.191147
263.190493
263.189848
263.189213
263.188586
263.187969
263.187361
263.186762
263.186172
263.185590
263.185017
263.184453
263.183896
263.183348
263.182808
263.182277
263.181753
263.181237
263.180728
263.180227
263.179734
263.179248
263.178770
263.178298
263.177834
263.177376
263.176926
263.176483
263.176046
263.175615
263.175192
263.174775
263.174364
263.173959
263.173561
263.173168
263.172782
263.172402
263.172027
263.171659
263.171296
263.170938
263.170586
263.170240
263.169899
263.169563
263.169233
263.168907
263.168587
263.168272
263.167961
263.167656
263.167355
263.167059
263.166768
263.166481
263.166199
263.165921
263.165648
263.165379
263.165114
263.164853
263.164597
263.164345
263.164096
263.163852
263.163612
263.163375
263.163142
263.162913
263.162688
263.162466
263.162248
263.162033
263.161822
263.161614
263.161410
263.161209
263.161011
263.160816
263.160625
263.160437
263.160251
263.160069
263.159890
263.159714
263.159540
263.159369
263.159202
263.159037
263.158874
263.158715
263.158557
263.158403
263.158251
263.158102
263.157955
263.157810
263.157668
263.157528
263.157391
263.157256
263.157123
263.156992
263.156863
263.156737
263.156612
263.156490
263.156370
263.156252
263.156135
263.156021
263.155909
263.155798
263.155689
263.155583
263.155477
263.155374
263.155272
263.155172
263.155074
263.154978
263.154883
263.154789
263.154697
263.154607
263.154518
263.154431
263.154345
263.154260
263.154177
263.154095
263.154015
263.153936
263.153858
263.153782
263.153707
263.153633
263.153560
263.153489
263.153418
263.153349
263.153281
263.153214
263.153148
263.153083
263.153020
263.152957
263.152895
263.152834
263.152775
263.152716
263.152658
263.152601
263.152545
263.152490
263.152436
263.152382
263.152329
263.152278
263.152227
263.152176
263.152127
263.152078
263.152030
263.151983
263.151936
263.151890
263.151845
263.151800
263.151757
263.151713
263.151670
263.151628
263.151587
263.151546
263.151505
263.151466
263.151426
263.151387
263.151349
263.151311
263.151274
263.151237
263.151200
263.151164
263.151129
263.151093
263.151059
263.151024
263.150990
263.150956
263.150923
263.150890
263.150857
263.150825
263.150793
263.150761
263.150729
263.150698
263.150667
263.150636
263.150606
263.150576
263.150546
263.150516
263.150486
263.150457
263.150427
263.150398
263.150369
263.150340
263.150311
263.150283
263.150254
263.150226
263.150197
263.150169
263.150141
263.150112
263.150084
263.150056
263.150028
263.150000
        </DataArray>
      </PointData>
      <CellData>
      </CellData>
    </Piece>
  </UnstructuredGrid>
</VTKFile>
