<?xml version="1.0"?>
<VTKFile type="UnstructuredGrid" version="0.1" byte_order="LittleEndian">
  <UnstructuredGrid>
    <Piece NumberOfPoints="801" NumberOfCells="800">
      <Points>
        <DataArray type="Float32" NumberOfComponents="3" format="ascii">
0.000000 0.0 0.0
0.005000 0.0 0.0
0.010000 0.0 0.0
0.015000 0.0 0.0
0.020000 0.0 0.0
0.025000 0.0 0.0
0.030000 0.0 0.0
0.035000 0.0 0.0
0.040000 0.0 0.0
0.045000 0.0 0.0
0.050000 0.0 0.0
0.055000 0.0 0.0
0.060000 0.0 0.0
0.065000 0.0 0.0
0.070000 0.0 0.0
0.075000 0.0 0.0
0.080000 0.0 0.0
0.085000 0.0 0.0
0.090000 0.0 0.0
0.095000 0.0 0.0
0.100000 0.0 0.0
0.105000 0.0 0.0
0.110000 0.0 0.0
0.115000 0.0 0.0
0.120000 0.0 0.0
0.125000 0.0 0.0
0.130000 0.0 0.0
0.135000 0.0 0.0
0.140000 0.0 0.0
0.145000 0.0 0.0
0.150000 0.0 0.0
0.155000 0.0 0.0
0.160000 0.0 0.0
0.165000 0.0 0.0
0.170000 0.0 0.0
0.175000 0.0 0.0
0.180000 0.0 0.0
0.185000 0.0 0.0
0.190000 0.0 0.0
0.195000 0.0 0.0
0.200000 0.0 0.0
0.205000 0.0 0.0
0.210000 0.0 0.0
0.215000 0.0 0.0
0.220000 0.0 0.0
0.225000 0.0 0.0
0.230000 0.0 0.0
0.235000 0.0 0.0
0.240000 0.0 0.0
0.245000 0.0 0.0
0.250000 0.0 0.0
0.255000 0.0 0.0
0.260000 0.0 0.0
0.265000 0.0 0.0
0.270000 0.0 0.0
0.275000 0.0 0.0
0.280000 0.0 0.0
0.285000 0.0 0.0
0.290000 0.0 0.0
0.295000 0.0 0.0
0.300000 0.0 0.0
0.305000 0.0 0.0
0.310000 0.0 0.0
0.315000 0.0 0.0
0.320000 0.0 0.0
0.325000 0.0 0.0
0.330000 0.0 0.0
0.335000 0.0 0.0
0.340000 0.0 0.0
0.345000 0.0 0.0
0.350000 0.0 0.0
0.355000 0.0 0.0
0.360000 0.0 0.0
0.365000 0.0 0.0
0.370000 0.0 0.0
0.375000 0.0 0.0
0.380000 0.0 0.0
0.385000 0.0 0.0
0.390000 0.0 0.0
0.395000 0.0 0.0
0.400000 0.0 0.0
0.405000 0.0 0.0
0.410000 0.0 0.0
0.415000 0.0 0.0
0.420000 0.0 0.0
0.425000 0.0 0.0
0.430000 0.0 0.0
0.435000 0.0 0.0
0.440000 0.0 0.0
0.445000 0.0 0.0
0.450000 0.0 0.0
0.455000 0.0 0.0
0.460000 0.0 0.0
0.465000 0.0 0.0
0.470000 0.0 0.0
0.475000 0.0 0.0
0.480000 0.0 0.0
0.485000 0.0 0.0
0.490000 0.0 0.0
0.495000 0.0 0.0
0.500000 0.0 0.0
0.505000 0.0 0.0
0.510000 0.0 0.0
0.515000 0.0 0.0
0.520000 0.0 0.0
0.525000 0.0 0.0
0.530000 0.0 0.0
0.535000 0.0 0.0
0.540000 0.0 0.0
0.545000 0.0 0.0
0.550000 0.0 0.0
0.555000 0.0 0.0
0.560000 0.0 0.0
0.565000 0.0 0.0
0.570000 0.0 0.0
0.575000 0.0 0.0
0.580000 0.0 0.0
0.585000 0.0 0.0
0.590000 0.0 0.0
0.595000 0.0 0.0
0.600000 0.0 0.0
0.605000 0.0 0.0
0.610000 0.0 0.0
0.615000 0.0 0.0
0.620000 0.0 0.0
0.625000 0.0 0.0
0.630000 0.0 0.0
0.635000 0.0 0.0
0.640000 0.0 0.0
0.645000 0.0 0.0
0.650000 0.0 0.0
0.655000 0.0 0.0
0.660000 0.0 0.0
0.665000 0.0 0.0
0.670000 0.0 0.0
0.675000 0.0 0.0
0.680000 0.0 0.0
0.685000 0.0 0.0
0.690000 0.0 0.0
0.695000 0.0 0.0
0.700000 0.0 0.0
0.705000 0.0 0.0
0.710000 0.0 0.0
0.715000 0.0 0.0
0.720000 0.0 0.0
0.725000 0.0 0.0
0.730000 0.0 0.0
0.735000 0.0 0.0
0.740000 0.0 0.0
0.745000 0.0 0.0
0.750000 0.0 0.0
0.755000 0.0 0.0
0.760000 0.0 0.0
0.765000 0.0 0.0
0.770000 0.0 0.0
0.775000 0.0 0.0
0.780000 0.0 0.0
0.785000 0.0 0.0
0.790000 0.0 0.0
0.795000 0.0 0.0
0.800000 0.0 0.0
0.805000 0.0 0.0
0.810000 0.0 0.0
0.815000 0.0 0.0
0.820000 0.0 0.0
0.825000 0.0 0.0
0.830000 0.0 0.0
0.835000 0.0 0.0
0.840000 0.0 0.0
0.845000 0.0 0.0
0.850000 0.0 0.0
0.855000 0.0 0.0
0.860000 0.0 0.0
0.865000 0.0 0.0
0.870000 0.0 0.0
0.875000 0.0 0.0
0.880000 0.0 0.0
0.885000 0.0 0.0
0.890000 0.0 0.0
0.895000 0.0 0.0
0.900000 0.0 0.0
0.905000 0.0 0.0
0.910000 0.0 0.0
0.915000 0.0 0.0
0.920000 0.0 0.0
0.925000 0.0 0.0
0.930000 0.0 0.0
0.935000 0.0 0.0
0.940000 0.0 0.0
0.945000 0.0 0.0
0.950000 0.0 0.0
0.955000 0.0 0.0
0.960000 0.0 0.0
0.965000 0.0 0.0
0.970000 0.0 0.0
0.975000 0.0 0.0
0.980000 0.0 0.0
0.985000 0.0 0.0
0.990000 0.0 0.0
0.995000 0.0 0.0
1.000000 0.0 0.0
1.005000 0.0 0.0
1.010000 0.0 0.0
1.015000 0.0 0.0
1.020000 0.0 0.0
1.025000 0.0 0.0
1.030000 0.0 0.0
1.035000 0.0 0.0
1.040000 0.0 0.0
1.045000 0.0 0.0
1.050000 0.0 0.0
1.055000 0.0 0.0
1.060000 0.0 0.0
1.065000 0.0 0.0
1.070000 0.0 0.0
1.075000 0.0 0.0
1.080000 0.0 0.0
1.085000 0.0 0.0
1.090000 0.0 0.0
1.095000 0.0 0.0
1.100000 0.0 0.0
1.105000 0.0 0.0
1.110000 0.0 0.0
1.115000 0.0 0.0
1.120000 0.0 0.0
1.125000 0.0 0.0
1.130000 0.0 0.0
1.135000 0.0 0.0
1.140000 0.0 0.0
1.145000 0.0 0.0
1.150000 0.0 0.0
1.155000 0.0 0.0
1.160000 0.0 0.0
1.165000 0.0 0.0
1.170000 0.0 0.0
1.175000 0.0 0.0
1.180000 0.0 0.0
1.185000 0.0 0.0
1.190000 0.0 0.0
1.195000 0.0 0.0
1.200000 0.0 0.0
1.205000 0.0 0.0
1.210000 0.0 0.0
1.215000 0.0 0.0
1.220000 0.0 0.0
1.225000 0.0 0.0
1.230000 0.0 0.0
1.235000 0.0 0.0
1.240000 0.0 0.0
1.245000 0.0 0.0
1.250000 0.0 0.0
1.255000 0.0 0.0
1.260000 0.0 0.0
1.265000 0.0 0.0
1.270000 0.0 0.0
1.275000 0.0 0.0
1.280000 0.0 0.0
1.285000 0.0 0.0
1.290000 0.0 0.0
1.295000 0.0 0.0
1.300000 0.0 0.0
1.305000 0.0 0.0
1.310000 0.0 0.0
1.315000 0.0 0.0
1.320000 0.0 0.0
1.325000 0.0 0.0
1.330000 0.0 0.0
1.335000 0.0 0.0
1.340000 0.0 0.0
1.345000 0.0 0.0
1.350000 0.0 0.0
1.355000 0.0 0.0
1.360000 0.0 0.0
1.365000 0.0 0.0
1.370000 0.0 0.0
1.375000 0.0 0.0
1.380000 0.0 0.0
1.385000 0.0 0.0
1.390000 0.0 0.0
1.395000 0.0 0.0
1.400000 0.0 0.0
1.405000 0.0 0.0
1.410000 0.0 0.0
1.415000 0.0 0.0
1.420000 0.0 0.0
1.425000 0.0 0.0
1.430000 0.0 0.0
1.435000 0.0 0.0
1.440000 0.0 0.0
1.445000 0.0 0.0
1.450000 0.0 0.0
1.455000 0.0 0.0
1.460000 0.0 0.0
1.465000 0.0 0.0
1.470000 0.0 0.0
1.475000 0.0 0.0
1.480000 0.0 0.0
1.485000 0.0 0.0
1.490000 0.0 0.0
1.495000 0.0 0.0
1.500000 0.0 0.0
1.505000 0.0 0.0
1.510000 0.0 0.0
1.515000 0.0 0.0
1.520000 0.0 0.0
1.525000 0.0 0.0
1.530000 0.0 0.0
1.535000 0.0 0.0
1.540000 0.0 0.0
1.545000 0.0 0.0
1.550000 0.0 0.0
1.555000 0.0 0.0
1.560000 0.0 0.0
1.565000 0.0 0.0
1.570000 0.0 0.0
1.575000 0.0 0.0
1.580000 0.0 0.0
1.585000 0.0 0.0
1.590000 0.0 0.0
1.595000 0.0 0.0
1.600000 0.0 0.0
1.605000 0.0 0.0
1.610000 0.0 0.0
1.615000 0.0 0.0
1.620000 0.0 0.0
1.625000 0.0 0.0
1.630000 0.0 0.0
1.635000 0.0 0.0
1.640000 0.0 0.0
1.645000 0.0 0.0
1.650000 0.0 0.0
1.655000 0.0 0.0
1.660000 0.0 0.0
1.665000 0.0 0.0
1.670000 0.0 0.0
1.675000 0.0 0.0
1.680000 0.0 0.0
1.685000 0.0 0.0
1.690000 0.0 0.0
1.695000 0.0 0.0
1.700000 0.0 0.0
1.705000 0.0 0.0
1.710000 0.0 0.0
1.715000 0.0 0.0
1.720000 0.0 0.0
1.725000 0.0 0.0
1.730000 0.0 0.0
1.735000 0.0 0.0
1.740000 0.0 0.0
1.745000 0.0 0.0
1.750000 0.0 0.0
1.755000 0.0 0.0
1.760000 0.0 0.0
1.765000 0.0 0.0
1.770000 0.0 0.0
1.775000 0.0 0.0
1.780000 0.0 0.0
1.785000 0.0 0.0
1.790000 0.0 0.0
1.795000 0.0 0.0
1.800000 0.0 0.0
1.805000 0.0 0.0
1.810000 0.0 0.0
1.815000 0.0 0.0
1.820000 0.0 0.0
1.825000 0.0 0.0
1.830000 0.0 0.0
1.835000 0.0 0.0
1.840000 0.0 0.0
1.845000 0.0 0.0
1.850000 0.0 0.0
1.855000 0.0 0.0
1.860000 0.0 0.0
1.865000 0.0 0.0
1.870000 0.0 0.0
1.875000 0.0 0.0
1.880000 0.0 0.0
1.885000 0.0 0.0
1.890000 0.0 0.0
1.895000 0.0 0.0
1.900000 0.0 0.0
1.905000 0.0 0.0
1.910000 0.0 0.0
1.915000 0.0 0.0
1.920000 0.0 0.0
1.925000 0.0 0.0
1.930000 0.0 0.0
1.935000 0.0 0.0
1.940000 0.0 0.0
1.945000 0.0 0.0
1.950000 0.0 0.0
1.955000 0.0 0.0
1.960000 0.0 0.0
1.965000 0.0 0.0
1.970000 0.0 0.0
1.975000 0.0 0.0
1.980000 0.0 0.0
1.985000 0.0 0.0
1.990000 0.0 0.0
1.995000 0.0 0.0
2.000000 0.0 0.0
2.005000 0.0 0.0
2.010000 0.0 0.0
2.015000 0.0 0.0
2.020000 0.0 0.0
2.025000 0.0 0.0
2.030000 0.0 0.0
2.035000 0.0 0.0
2.040000 0.0 0.0
2.045000 0.0 0.0
2.050000 0.0 0.0
2.055000 0.0 0.0
2.060000 0.0 0.0
2.065000 0.0 0.0
2.070000 0.0 0.0
2.075000 0.0 0.0
2.080000 0.0 0.0
2.085000 0.0 0.0
2.090000 0.0 0.0
2.095000 0.0 0.0
2.100000 0.0 0.0
2.105000 0.0 0.0
2.110000 0.0 0.0
2.115000 0.0 0.0
2.120000 0.0 0.0
2.125000 0.0 0.0
2.130000 0.0 0.0
2.135000 0.0 0.0
2.140000 0.0 0.0
2.145000 0.0 0.0
2.150000 0.0 0.0
2.155000 0.0 0.0
2.160000 0.0 0.0
2.165000 0.0 0.0
2.170000 0.0 0.0
2.175000 0.0 0.0
2.180000 0.0 0.0
2.185000 0.0 0.0
2.190000 0.0 0.0
2.195000 0.0 0.0
2.200000 0.0 0.0
2.205000 0.0 0.0
2.210000 0.0 0.0
2.215000 0.0 0.0
2.220000 0.0 0.0
2.225000 0.0 0.0
2.230000 0.0 0.0
2.235000 0.0 0.0
2.240000 0.0 0.0
2.245000 0.0 0.0
2.250000 0.0 0.0
2.255000 0.0 0.0
2.260000 0.0 0.0
2.265000 0.0 0.0
2.270000 0.0 0.0
2.275000 0.0 0.0
2.280000 0.0 0.0
2.285000 0.0 0.0
2.290000 0.0 0.0
2.295000 0.0 0.0
2.300000 0.0 0.0
2.305000 0.0 0.0
2.310000 0.0 0.0
2.315000 0.0 0.0
2.320000 0.0 0.0
2.325000 0.0 0.0
2.330000 0.0 0.0
2.335000 0.0 0.0
2.340000 0.0 0.0
2.345000 0.0 0.0
2.350000 0.0 0.0
2.355000 0.0 0.0
2.360000 0.0 0.0
2.365000 0.0 0.0
2.370000 0.0 0.0
2.375000 0.0 0.0
2.380000 0.0 0.0
2.385000 0.0 0.0
2.390000 0.0 0.0
2.395000 0.0 0.0
2.400000 0.0 0.0
2.405000 0.0 0.0
2.410000 0.0 0.0
2.415000 0.0 0.0
2.420000 0.0 0.0
2.425000 0.0 0.0
2.430000 0.0 0.0
2.435000 0.0 0.0
2.440000 0.0 0.0
2.445000 0.0 0.0
2.450000 0.0 0.0
2.455000 0.0 0.0
2.460000 0.0 0.0
2.465000 0.0 0.0
2.470000 0.0 0.0
2.475000 0.0 0.0
2.480000 0.0 0.0
2.485000 0.0 0.0
2.490000 0.0 0.0
2.495000 0.0 0.0
2.500000 0.0 0.0
2.505000 0.0 0.0
2.510000 0.0 0.0
2.515000 0.0 0.0
2.520000 0.0 0.0
2.525000 0.0 0.0
2.530000 0.0 0.0
2.535000 0.0 0.0
2.540000 0.0 0.0
2.545000 0.0 0.0
2.550000 0.0 0.0
2.555000 0.0 0.0
2.560000 0.0 0.0
2.565000 0.0 0.0
2.570000 0.0 0.0
2.575000 0.0 0.0
2.580000 0.0 0.0
2.585000 0.0 0.0
2.590000 0.0 0.0
2.595000 0.0 0.0
2.600000 0.0 0.0
2.605000 0.0 0.0
2.610000 0.0 0.0
2.615000 0.0 0.0
2.620000 0.0 0.0
2.625000 0.0 0.0
2.630000 0.0 0.0
2.635000 0.0 0.0
2.640000 0.0 0.0
2.645000 0.0 0.0
2.650000 0.0 0.0
2.655000 0.0 0.0
2.660000 0.0 0.0
2.665000 0.0 0.0
2.670000 0.0 0.0
2.675000 0.0 0.0
2.680000 0.0 0.0
2.685000 0.0 0.0
2.690000 0.0 0.0
2.695000 0.0 0.0
2.700000 0.0 0.0
2.705000 0.0 0.0
2.710000 0.0 0.0
2.715000 0.0 0.0
2.720000 0.0 0.0
2.725000 0.0 0.0
2.730000 0.0 0.0
2.735000 0.0 0.0
2.740000 0.0 0.0
2.745000 0.0 0.0
2.750000 0.0 0.0
2.755000 0.0 0.0
2.760000 0.0 0.0
2.765000 0.0 0.0
2.770000 0.0 0.0
2.775000 0.0 0.0
2.780000 0.0 0.0
2.785000 0.0 0.0
2.790000 0.0 0.0
2.795000 0.0 0.0
2.800000 0.0 0.0
2.805000 0.0 0.0
2.810000 0.0 0.0
2.815000 0.0 0.0
2.820000 0.0 0.0
2.825000 0.0 0.0
2.830000 0.0 0.0
2.835000 0.0 0.0
2.840000 0.0 0.0
2.845000 0.0 0.0
2.850000 0.0 0.0
2.855000 0.0 0.0
2.860000 0.0 0.0
[...]
      <PointData Scalars="Temperature">
        <DataArray type="Float32" Name="Temperature" format="ascii">
308.150000
306.487126
304.825230
303.165288
301.508274
299.855157
298.206901
296.564464
294.928796
293.300838
291.681522
290.071770
288.472493
286.884594
285.308962
283.746479
282.198019
280.664445
279.146619
277.645395
276.161628
274.697795
273.511108
273.086370
272.878920
272.730846
272.607253
272.496062
272.391882
272.291936
272.194672
272.099172
272.004883
271.911459
271.818689
271.726440
271.634631
271.543213
271.452159
271.361454
271.271091
271.181072
271.091398
271.002075
270.913110
270.824511
270.736285
270.648442
270.560988
270.473934
270.387287
270.301056
270.215250
270.129876
270.044943
269.960458
269.876431
269.792867
269.709775
269.627163
269.545037
269.463404
269.382272
269.301647
269.221536
269.141945
269.062880
268.984348
268.906354
268.828904
268.752004
268.675659
268.599873
268.524653
268.450003
268.375928
268.302432
268.229519
268.157193
268.085459
268.014321
267.943781
267.873843
267.804510
267.735786
267.667674
267.600175
267.533293
267.467029
267.401386
267.336367
267.271972
267.208203
267.145063
267.082551
267.020669
266.959419
266.898801
266.838815
266.779462
266.720743
266.662657
266.605204
266.548385
266.492199
266.436645
266.381723
266.327431
266.273770
266.220738
266.168334
266.116556
266.065404
266.014874
265.964966
265.915678
265.867007
265.818952
265.771510
265.724679
265.678456
265.632840
265.587826
265.543412
265.499595
265.456373
265.413742
265.371698
265.330239
265.289361
265.249060
265.209333
265.170177
265.131586
265.093558
265.056089
265.019174
264.982810
264.946992
264.911715
264.876977
264.842772
264.809096
264.775945
264.743313
264.711197
264.679592
264.648493
264.617895
264.587794
264.558185
264.529063
264.500424
264.472261
264.444572
264.417349
264.390590
264.364287
264.338438
264.313036
264.288076
264.263554
264.239465
264.215803
264.192563
264.169740
264.147329
264.125326
264.103724
264.082519
264.061706
264.041280
264.021236
264.001568
263.982272
263.963342
263.944774
263.926563
263.908703
263.891190
263.874019
263.857185
263.840682
263.824507
263.808654
263.793118
263.777895
263.762980
263.748368
263.734054
263.720034
263.706304
263.692858
263.679692
263.666802
263.654183
263.641830
263.629740
263.617907
263.606328
263.594998
263.583913
263.573068
263.562460
263.552085
263.541938
263.532015
263.522312
263.512826
263.503552
263.494487
263.485626
263.476967
263.468504
263.460236
263.452157
263.444264
263.436554
263.429023
263.421669
263.414486
263.407472
263.400625
263.393939
263.387413
263.381042
263.374825
263.368757
263.362836
263.357058
263.351422
263.345923
263.340559
263.335327
263.330225
263.325249
263.320397
263.315666
263.311054
263.306558
263.302176
263.297904
263.293742
263.289685
263.285733
263.281882
263.278130
263.274476
263.270916
263.267449
263.264073
263.260785
263.257584
263.254467
263.251433
263.248479
263.245605
263.242807
263.240084
263.237434
263.234856
263.232348
263.229907
263.227534
263.225225
263.222979
263.220796
263.218672
263.216607
263.214600
263.212648
263.210751
263.208907
263.207115
263.205373
263.203680
263.202036
263.200438
263.198885
263.197377
263.195912
263.194489
263.193108
263.191766
263.190463
263.189197
263.187969
263.186776
263.185619
263.184495
263.183405
263.182346
263.181319
263.180323
263.179356
263.178418
263.177508
263.176625
263.175769
263.174938
263.174133
263.173352
263.172595
263.171861
263.171149
263.170459
263.169790
263.169142
263.168513
263.167904
263.167314
263.166743
263.166189
263.165652
263.165132
263.164628
263.164141
263.163668
263.163211
263.162767
263.162338
263.161923
263.161521
263.161131
263.160754
263.160390
263.160037
263.159695
263.159364
263.159044
263.158734
263.158435
263.158145
263.157864
263.157593
263.157331
263.157077
263.156832
263.156594
263.156365
263.156143
263.155929
263.155721
263.155521
263.155327
263.155140
263.154959
263.154784
263.154615
263.154451
263.154293
263.154141
263.153993
263.153851
263.153714
263.153581
263.153453
263.153329
263.153209
263.153094
263.152982
263.152874
263.152770
263.152670
263.152573
263.152480
263.152389
263.152302
263.152218
263.152137
263.152059
263.151983
263.151910
263.151840
263.151772
263.151707
263.151644
263.151583
263.151524
263.151468
263.151413
263.151360
263.151310
263.151261
263.151213
263.151168
263.151124
263.151082
263.151041
263.151002
263.150964
263.150928
263.150893
263.150859
263.150826
263.150795
263.150764
263.150735
263.150707
263.150680
263.150654
263.150629
263.150605
263.150582
263.150559
263.150538
263.150517
263.150497
263.150478
263.150459
263.150441
263.150424
263.150408
263.150392
263.150377
263.150362
263.150348
263.150334
263.150321
263.150308
263.150296
263.150285
263.150273
263.150263
263.150252
263.150242
263.150233
263.150223
263.150215
263.150206
263.150198
263.150190
263.150182
263.150175
263.150168
263.150161
263.150155
263.150149
263.150143
263.150137
263.150131
263.150126
263.150121
263.150116
263.150111
263.150107
263.150103
263.150098
263.150094
263.150091
263.150087
263.150083
263.150080
263.150077
263.150073
263.150070
263.150068
263.150065
263.150062
263.150060
263.150057
263.150055
263.150052
263.150050
263.150048
263.150046
263.150044
263.150042
263.150041
263.150039
263.150037
263.150036
263.150034
263.150033
263.150032
263.150030
263.150029
263.150028
263.150027
263.150025
263.150024
263.150023
263.150022
263.150021
263.150020
263.150020
263.150019
263.150018
263.150017
263.150016
263.150016
263.150015
263.150014
263.150014
263.150013
263.150013
263.150012
263.150012
263.150011
263.150011
263.150010
263.150010
263.150009
263.150009
263.150009
263.150008
263.150008
263.150007
263.150007
263.150007
263.150007
263.150006
263.150006
263.150006
263.150005
263.150005
263.150005
263.150005
263.150005
263.150004
263.150004
263.150004
263.150004
263.150004
263.150004
263.150003
263.150003
263.150003
263.150003
263.150003
263.150003
263.150003
263.150002
263.150002
263.150002
263.150002
263.150002
263.150002
263.150002
263.150002
263.150002
263.150002
263.150002
263.150001
263.150001
263.150001
263.150001
263.150001
263.150001
263.150001
263.150001
263.150001
263.150001
263.150001
263.150001
263.150001
263.150001
263.150001
263.150001
263.150001
263.150001
263.150001
263.150001
263.150001
263.150001
263.150001
263.150001
263.150000
263.150000
263.150000
263.150000
263.150000
263.150000
263.150000
263.150000
263.150000
263.150000
263.150000
263.150000
263.150000
263.150000
263.150000
263.150000
263.150000
263.150000
263.150000
263.150000
263.150000
263.150000
263.150000
263.150000
263.150000
263.150000
263.150000
263.150000
263.150000
263.150000
263.150000
263.150000
263.150000
263.150000
263.150000
263.150000
263.150000
263.150000
263.150000
263.150000
263.150000
263.150000
263.150000
263.150000
263.150000
263.150000
263.150000
263.150000
263.150000
263.150000
263.150000
263.150000
263.150000
263.150000
263.150000
263.150000
263.150000
263.150000
263.150000
263.150000
263.150000
263.150000
263.150000
263.150000
263.150000
263.150000
263.150000
263.150000
263.150000
263.150000
263.150000
263.150000
263.150000
263.150000
263.150000
263.150000
263.150000
263.150000
263.150000
263.150000
263.150000
263.150000
263.150000
263.150000
263.150000
263.150000
263.150000
263.150000
263.150000
263.150000
263.150000
263.150000
263.150000
263.150000
263.150000
263.150000
263.150000
263.150000
263.150000
263.150000
263.150000
263.150000
263.150000
263.150000
263.150000
263.150000
263.150000
263.150000
263.150000
263.150000
263.150000
263.150000
263.150000
263.150000
263.150000
263.150000
263.150000
263.150000
263.150000
263.150000
263.150000
263.150000
263.150000
263.150000
263.150000
263.150000
263.150000
263.150000
263.150000
263.150000
263.150000
263.150000
263.150000
263.150000
263.150000
263.150000
263.150000
263.150000
263.150000
263.150000
263.150000
263.150000
263.150000
263.150000
263.150000
263.150000
263.150000
263.150000
263.150000
263.150000
263.150000
263.150000
263.150000
263.150000
263.150000
263.150000
263.150000
263.150000
263.150000
263.150000
263.150000
263.150000
263.150000
263.150000
263.150000
263.150000
263.150000
263.150000
263.150000
263.150000
263.150000
263.150000
263.150000
263.150000
263.150000
263.150000
263.150000
263.150000
263.150000
263.150000
263.150000
263.150000
263.150000
263.150000
263.150000
263.150000
263.150000
263.150000
263.150000
263.150000
263.150000
263.150000
263.150000
263.150000
263.150000
263.150000
263.150000
263.150000
263.150000
263.150000
263.150000
263.150000
263.150000
263.150000
263.150000
263.150000
263.150000
263.150000
263.150000
263.150000
263.150000
263.150000
263.150000
263.150000
263.150000
263.150000
263.150000
263.150000
263.150000
263.150000
263.150000
263.150000
263.150000
263.150000
263.150000
263.150000
263.150000
263.150000
263.150000
263.150000
263.150000
263.150000
263.150000
263.150000
        </DataArray>
      </PointData>
      <CellData>
      </CellData>
    </Piece>
  </UnstructuredGrid>
</VTKFile>
