<?xml version="1.0"?>
<VTKFile type="UnstructuredGrid" version="0.1" byte_order="LittleEndian">
  <UnstructuredGrid>
    <Piece NumberOfPoints="801" NumberOfCells="800">
      <Points>
        <DataArray type="Float32" NumberOfComponents="3" format="ascii">
0.000000 0.0 0.0
0.005000 0.0 0.0
0.010000 0.0 0.0
0.015000 0.0 0.0
0.020000 0.0 0.0
0.025000 0.0 0.0
0.030000 0.0 0.0
0.035000 0.0 0.0
0.040000 0.0 0.0
0.045000 0.0 0.0
0.050000 0.0 0.0
0.055000 0.0 0.0
0.060000 0.0 0.0
0.065000 0.0 0.0
0.070000 0.0 0.0
0.075000 0.0 0.0
0.080000 0.0 0.0
0.085000 0.0 0.0
0.090000 0.0 0.0
0.095000 0.0 0.0
0.100000 0.0 0.0
0.105000 0.0 0.0
0.110000 0.0 0.0
0.115000 0.0 0.0
0.120000 0.0 0.0
0.125000 0.0 0.0
0.130000 0.0 0.0
0.135000 0.0 0.0
0.140000 0.0 0.0
0.145000 0.0 0.0
0.150000 0.0 0.0
0.155000 0.0 0.0
0.160000 0.0 0.0
0.165000 0.0 0.0
0.170000 0.0 0.0
0.175000 0.0 0.0
0.180000 0.0 0.0
0.185000 0.0 0.0
0.190000 0.0 0.0
0.195000 0.0 0.0
0.200000 0.0 0.0
0.205000 0.0 0.0
0.210000 0.0 0.0
0.215000 0.0 0.0
0.220000 0.0 0.0
0.225000 0.0 0.0
0.230000 0.0 0.0
0.235000 0.0 0.0
0.240000 0.0 0.0
0.245000 0.0 0.0
0.250000 0.0 0.0
0.255000 0.0 0.0
0.260000 0.0 0.0
0.265000 0.0 0.0
0.270000 0.0 0.0
0.275000 0.0 0.0
0.280000 0.0 0.0
0.285000 0.0 0.0
0.290000 0.0 0.0
0.295000 0.0 0.0
0.300000 0.0 0.0
0.305000 0.0 0.0
0.310000 0.0 0.0
0.315000 0.0 0.0
0.320000 0.0 0.0
0.325000 0.0 0.0
0.330000 0.0 0.0
0.335000 0.0 0.0
0.340000 0.0 0.0
0.345000 0.0 0.0
0.350000 0.0 0.0
0.355000 0.0 0.0
0.360000 0.0 0.0
0.365000 0.0 0.0
0.370000 0.0 0.0
0.375000 0.0 0.0
0.380000 0.0 0.0
0.385000 0.0 0.0
0.390000 0.0 0.0
0.395000 0.0 0.0
0.400000 0.0 0.0
0.405000 0.0 0.0
0.410000 0.0 0.0
0.415000 0.0 0.0
0.420000 0.0 0.0
0.425000 0.0 0.0
0.430000 0.0 0.0
0.435000 0.0 0.0
0.440000 0.0 0.0
0.445000 0.0 0.0
0.450000 0.0 0.0
0.455000 0.0 0.0
0.460000 0.0 0.0
0.465000 0.0 0.0
0.470000 0.0 0.0
0.475000 0.0 0.0
0.480000 0.0 0.0
0.485000 0.0 0.0
0.490000 0.0 0.0
0.495000 0.0 0.0
0.500000 0.0 0.0
0.505000 0.0 0.0
0.510000 0.0 0.0
0.515000 0.0 0.0
0.520000 0.0 0.0
0.525000 0.0 0.0
0.530000 0.0 0.0
0.535000 0.0 0.0
0.540000 0.0 0.0
0.545000 0.0 0.0
0.550000 0.0 0.0
0.555000 0.0 0.0
0.560000 0.0 0.0
0.565000 0.0 0.0
0.570000 0.0 0.0
0.575000 0.0 0.0
0.580000 0.0 0.0
0.585000 0.0 0.0
0.590000 0.0 0.0
0.595000 0.0 0.0
0.600000 0.0 0.0
0.605000 0.0 0.0
0.610000 0.0 0.0
0.615000 0.0 0.0
0.620000 0.0 0.0
0.625000 0.0 0.0
0.630000 0.0 0.0
0.635000 0.0 0.0
0.640000 0.0 0.0
0.645000 0.0 0.0
0.650000 0.0 0.0
0.655000 0.0 0.0
0.660000 0.0 0.0
0.665000 0.0 0.0
0.670000 0.0 0.0
0.675000 0.0 0.0
0.680000 0.0 0.0
0.685000 0.0 0.0
0.690000 0.0 0.0
0.695000 0.0 0.0
0.700000 0.0 0.0
0.705000 0.0 0.0
0.710000 0.0 0.0
0.715000 0.0 0.0
0.720000 0.0 0.0
0.725000 0.0 0.0
0.730000 0.0 0.0
0.735000 0.0 0.0
0.740000 0.0 0.0
0.745000 0.0 0.0
0.750000 0.0 0.0
0.755000 0.0 0.0
0.760000 0.0 0.0
0.765000 0.0 0.0
0.770000 0.0 0.0
0.775000 0.0 0.0
0.780000 0.0 0.0
0.785000 0.0 0.0
0.790000 0.0 0.0
0.795000 0.0 0.0
0.800000 0.0 0.0
0.805000 0.0 0.0
0.810000 0.0 0.0
0.815000 0.0 0.0
0.820000 0.0 0.0
0.825000 0.0 0.0
0.830000 0.0 0.0
0.835000 0.0 0.0
0.840000 0.0 0.0
0.845000 0.0 0.0
0.850000 0.0 0.0
0.855000 0.0 0.0
0.860000 0.0 0.0
0.865000 0.0 0.0
0.870000 0.0 0.0
0.875000 0.0 0.0
0.880000 0.0 0.0
0.885000 0.0 0.0
0.890000 0.0 0.0
0.895000 0.0 0.0
0.900000 0.0 0.0
0.905000 0.0 0.0
0.910000 0.0 0.0
0.915000 0.0 0.0
0.920000 0.0 0.0
0.925000 0.0 0.0
0.930000 0.0 0.0
0.935000 0.0 0.0
0.940000 0.0 0.0
0.945000 0.0 0.0
0.950000 0.0 0.0
0.955000 0.0 0.0
0.960000 0.0 0.0
0.965000 0.0 0.0
0.970000 0.0 0.0
0.975000 0.0 0.0
0.980000 0.0 0.0
0.985000 0.0 0.0
0.990000 0.0 0.0
0.995000 0.0 0.0
1.000000 0.0 0.0
1.005000 0.0 0.0
1.010000 0.0 0.0
1.015000 0.0 0.0
1.020000 0.0 0.0
1.025000 0.0 0.0
1.030000 0.0 0.0
1.035000 0.0 0.0
1.040000 0.0 0.0
1.045000 0.0 0.0
1.050000 0.0 0.0
1.055000 0.0 0.0
1.060000 0.0 0.0
1.065000 0.0 0.0
1.070000 0.0 0.0
1.075000 0.0 0.0
1.080000 0.0 0.0
1.085000 0.0 0.0
1.090000 0.0 0.0
1.095000 0.0 0.0
1.100000 0.0 0.0
1.105000 0.0 0.0
1.110000 0.0 0.0
1.115000 0.0 0.0
1.120000 0.0 0.0
1.125000 0.0 0.0
1.130000 0.0 0.0
1.135000 0.0 0.0
1.140000 0.0 0.0
1.145000 0.0 0.0
1.150000 0.0 0.0
1.155000 0.0 0.0
1.160000 0.0 0.0
1.165000 0.0 0.0
1.170000 0.0 0.0
1.175000 0.0 0.0
1.180000 0.0 0.0
1.185000 0.0 0.0
1.190000 0.0 0.0
1.195000 0.0 0.0
1.200000 0.0 0.0
1.205000 0.0 0.0
1.210000 0.0 0.0
1.215000 0.0 0.0
1.220000 0.0 0.0
1.225000 0.0 0.0
1.230000 0.0 0.0
1.235000 0.0 0.0
1.240000 0.0 0.0
1.245000 0.0 0.0
1.250000 0.0 0.0
1.255000 0.0 0.0
1.260000 0.0 0.0
1.265000 0.0 0.0
1.270000 0.0 0.0
1.275000 0.0 0.0
1.280000 0.0 0.0
1.285000 0.0 0.0
1.290000 0.0 0.0
1.295000 0.0 0.0
1.300000 0.0 0.0
1.305000 0.0 0.0
1.310000 0.0 0.0
1.315000 0.0 0.0
1.320000 0.0 0.0
1.325000 0.0 0.0
1.330000 0.0 0.0
1.335000 0.0 0.0
1.340000 0.0 0.0
1.345000 0.0 0.0
1.350000 0.0 0.0
1.355000 0.0 0.0
1.360000 0.0 0.0
1.365000 0.0 0.0
1.370000 0.0 0.0
1.375000 0.0 0.0
1.380000 0.0 0.0
1.385000 0.0 0.0
1.390000 0.0 0.0
1.395000 0.0 0.0
1.400000 0.0 0.0
1.405000 0.0 0.0
1.410000 0.0 0.0
1.415000 0.0 0.0
1.420000 0.0 0.0
1.425000 0.0 0.0
1.430000 0.0 0.0
1.435000 0.0 0.0
1.440000 0.0 0.0
1.445000 0.0 0.0
1.450000 0.0 0.0
1.455000 0.0 0.0
1.460000 0.0 0.0
1.465000 0.0 0.0
1.470000 0.0 0.0
1.475000 0.0 0.0
1.480000 0.0 0.0
1.485000 0.0 0.0
1.490000 0.0 0.0
1.495000 0.0 0.0
1.500000 0.0 0.0
1.505000 0.0 0.0
1.510000 0.0 0.0
1.515000 0.0 0.0
1.520000 0.0 0.0
1.525000 0.0 0.0
1.530000 0.0 0.0
1.535000 0.0 0.0
1.540000 0.0 0.0
1.545000 0.0 0.0
1.550000 0.0 0.0
1.555000 0.0 0.0
1.560000 0.0 0.0
1.565000 0.0 0.0
1.570000 0.0 0.0
1.575000 0.0 0.0
1.580000 0.0 0.0
1.585000 0.0 0.0
1.590000 0.0 0.0
1.595000 0.0 0.0
1.600000 0.0 0.0
1.605000 0.0 0.0
1.610000 0.0 0.0
1.615000 0.0 0.0
1.620000 0.0 0.0
1.625000 0.0 0.0
1.630000 0.0 0.0
1.635000 0.0 0.0
1.640000 0.0 0.0
1.645000 0.0 0.0
1.650000 0.0 0.0
1.655000 0.0 0.0
1.660000 0.0 0.0
1.665000 0.0 0.0
1.670000 0.0 0.0
1.675000 0.0 0.0
1.680000 0.0 0.0
1.685000 0.0 0.0
1.690000 0.0 0.0
1.695000 0.0 0.0
1.700000 0.0 0.0
1.705000 0.0 0.0
1.710000 0.0 0.0
1.715000 0.0 0.0
1.720000 0.0 0.0
1.725000 0.0 0.0
1.730000 0.0 0.0
1.735000 0.0 0.0
1.740000 0.0 0.0
1.745000 0.0 0.0
1.750000 0.0 0.0
1.755000 0.0 0.0
1.760000 0.0 0.0
1.765000 0.0 0.0
1.770000 0.0 0.0
1.775000 0.0 0.0
1.780000 0.0 0.0
1.785000 0.0 0.0
1.790000 0.0 0.0
1.795000 0.0 0.0
1.800000 0.0 0.0
1.805000 0.0 0.0
1.810000 0.0 0.0
1.815000 0.0 0.0
1.820000 0.0 0.0
1.825000 0.0 0.0
1.830000 0.0 0.0
1.835000 0.0 0.0
1.840000 0.0 0.0
1.845000 0.0 0.0
1.850000 0.0 0.0
1.855000 0.0 0.0
1.860000 0.0 0.0
1.865000 0.0 0.0
1.870000 0.0 0.0
1.875000 0.0 0.0
1.880000 0.0 0.0
1.885000 0.0 0.0
1.890000 0.0 0.0
1.895000 0.0 0.0
1.900000 0.0 0.0
1.905000 0.0 0.0
1.910000 0.0 0.0
1.915000 0.0 0.0
1.920000 0.0 0.0
1.925000 0.0 0.0
1.930000 0.0 0.0
1.935000 0.0 0.0
1.940000 0.0 0.0
1.945000 0.0 0.0
1.950000 0.0 0.0
1.955000 0.0 0.0
1.960000 0.0 0.0
1.965000 0.0 0.0
1.970000 0.0 0.0
1.975000 0.0 0.0
1.980000 0.0 0.0
1.985000 0.0 0.0
1.990000 0.0 0.0
1.995000 0.0 0.0
2.000000 0.0 0.0
2.005000 0.0 0.0
2.010000 0.0 0.0
2.015000 0.0 0.0
2.020000 0.0 0.0
2.025000 0.0 0.0
2.030000 0.0 0.0
2.035000 0.0 0.0
2.040000 0.0 0.0
2.045000 0.0 0.0
2.050000 0.0 0.0
2.055000 0.0 0.0
2.060000 0.0 0.0
2.065000 0.0 0.0
2.070000 0.0 0.0
2.075000 0.0 0.0
2.080000 0.0 0.0
2.085000 0.0 0.0
2.090000 0.0 0.0
2.095000 0.0 0.0
2.100000 0.0 0.0
2.105000 0.0 0.0
2.110000 0.0 0.0
2.115000 0.0 0.0
2.120000 0.0 0.0
2.125000 0.0 0.0
2.130000 0.0 0.0
2.135000 0.0 0.0
2.140000 0.0 0.0
2.145000 0.0 0.0
2.150000 0.0 0.0
2.155000 0.0 0.0
2.160000 0.0 0.0
2.165000 0.0 0.0
2.170000 0.0 0.0
2.175000 0.0 0.0
2.180000 0.0 0.0
2.185000 0.0 0.0
2.190000 0.0 0.0
2.195000 0.0 0.0
2.200000 0.0 0.0
2.205000 0.0 0.0
2.210000 0.0 0.0
2.215000 0.0 0.0
2.220000 0.0 0.0
2.225000 0.0 0.0
2.230000 0.0 0.0
2.235000 0.0 0.0
2.240000 0.0 0.0
2.245000 0.0 0.0
2.250000 0.0 0.0
2.255000 0.0 0.0
2.260000 0.0 0.0
2.265000 0.0 0.0
2.270000 0.0 0.0
2.275000 0.0 0.0
2.280000 0.0 0.0
2.285000 0.0 0.0
2.290000 0.0 0.0
2.295000 0.0 0.0
2.300000 0.0 0.0
2.305000 0.0 0.0
2.310000 0.0 0.0
2.315000 0.0 0.0
2.320000 0.0 0.0
2.325000 0.0 0.0
2.330000 0.0 0.0
2.335000 0.0 0.0
2.340000 0.0 0.0
2.345000 0.0 0.0
2.350000 0.0 0.0
2.355000 0.0 0.0
2.360000 0.0 0.0
2.365000 0.0 0.0
2.370000 0.0 0.0
2.375000 0.0 0.0
2.380000 0.0 0.0
2.385000 0.0 0.0
2.390000 0.0 0.0
2.395000 0.0 0.0
2.400000 0.0 0.0
2.405000 0.0 0.0
2.410000 0.0 0.0
2.415000 0.0 0.0
2.420000 0.0 0.0
2.425000 0.0 0.0
2.430000 0.0 0.0
2.435000 0.0 0.0
2.440000 0.0 0.0
2.445000 0.0 0.0
2.450000 0.0 0.0
2.455000 0.0 0.0
2.460000 0.0 0.0
2.465000 0.0 0.0
2.470000 0.0 0.0
2.475000 0.0 0.0
2.480000 0.0 0.0
2.485000 0.0 0.0
2.490000 0.0 0.0
2.495000 0.0 0.0
2.500000 0.0 0.0
2.505000 0.0 0.0
2.510000 0.0 0.0
2.515000 0.0 0.0
2.520000 0.0 0.0
2.525000 0.0 0.0
2.530000 0.0 0.0
2.535000 0.0 0.0
2.540000 0.0 0.0
2.545000 0.0 0.0
2.550000 0.0 0.0
2.555000 0.0 0.0
2.560000 0.0 0.0
2.565000 0.0 0.0
2.570000 0.0 0.0
2.575000 0.0 0.0
2.580000 0.0 0.0
2.585000 0.0 0.0
2.590000 0.0 0.0
2.595000 0.0 0.0
2.600000 0.0 0.0
2.605000 0.0 0.0
2.610000 0.0 0.0
2.615000 0.0 0.0
2.620000 0.0 0.0
2.625000 0.0 0.0
2.630000 0.0 0.0
2.635000 0.0 0.0
2.640000 0.0 0.0
2.645000 0.0 0.0
2.650000 0.0 0.0
2.655000 0.0 0.0
2.660000 0.0 0.0
2.665000 0.0 0.0
2.670000 0.0 0.0
2.675000 0.0 0.0
2.680000 0.0 0.0
2.685000 0.0 0.0
2.690000 0.0 0.0
2.695000 0.0 0.0
2.700000 0.0 0.0
2.705000 0.0 0.0
2.710000 0.0 0.0
2.715000 0.0 0.0
2.720000 0.0 0.0
2.725000 0.0 0.0
2.730000 0.0 0.0
2.735000 0.0 0.0
2.740000 0.0 0.0
2.745000 0.0 0.0
2.750000 0.0 0.0
2.755000 0.0 0.0
2.760000 0.0 0.0
2.765000 0.0 0.0
2.770000 0.0 0.0
2.775000 0.0 0.0
2.780000 0.0 0.0
2.785000 0.0 0.0
2.790000 0.0 0.0
2.795000 0.0 0.0
2.800000 0.0 0.0
2.805000 0.0 0.0
2.810000 0.0 0.0
2.815000 0.0 0.0
2.820000 0.0 0.0
2.825000 0.0 0.0
2.830000 0.0 0.0
2.835000 0.0 0.0
2.840000 0.0 0.0
2.845000 0.0 0.0
2.850000 0.0 0.0
2.855000 0.0 0.0
2.860000 0.0 0.0
[...]
      <PointData Scalars="Temperature">
        <DataArray type="Float32" Name="Temperature" format="ascii">
308.150000
307.184579
306.219366
305.254567
304.290388
303.327037
302.364720
301.403640
300.444004
299.486014
298.529873
297.575781
296.623940
295.674547
294.727800
293.783894
292.843022
291.905377
290.971148
290.040523
289.113687
288.190824
287.272115
286.357739
285.447871
284.542686
283.642356
282.747048
281.856930
280.972166
280.092917
279.219343
278.351600
277.489842
276.634223
275.784894
274.942161
274.115869
273.473340
273.170481
273.006264
272.892429
272.802337
272.725568
272.657121
272.594245
272.535286
272.479176
272.425193
272.372831
272.321724
272.271603
272.222266
272.173557
272.125359
272.077581
272.030150
271.983012
271.936121
271.889443
271.842951
271.796623
271.750443
271.704396
271.658474
271.612666
271.566968
271.521374
271.475880
271.430485
271.385185
271.339980
271.294868
271.249849
271.204923
271.160090
271.115350
271.070704
271.026151
270.981693
270.937331
270.893065
270.848895
270.804823
270.760850
270.716977
270.673204
270.629532
270.585963
270.542497
270.499136
270.455879
270.412728
270.369685
270.326749
270.283923
270.241206
270.198600
270.156105
270.113723
270.071455
270.029300
269.987261
269.945338
269.903532
269.861844
269.820274
269.778824
269.737494
269.696285
269.655198
269.614234
269.573393
269.532676
269.492085
269.451619
269.411280
269.371068
269.330984
269.291029
269.251204
269.211509
269.171944
269.132511
269.093210
269.054043
269.015009
268.976109
268.937343
268.898714
268.860220
268.821863
268.783644
268.745562
268.707619
268.669815
268.632150
268.594626
268.557242
268.519999
268.482898
268.445940
268.409124
268.372451
268.335922
268.299537
268.263297
268.227202
268.191252
268.155449
268.119791
268.084281
268.048917
268.013702
267.978634
267.943714
267.908943
267.874321
267.839849
267.805526
267.771353
267.737330
267.703458
267.669737
267.636167
267.602748
267.569481
267.536366
267.503404
267.470593
267.437936
267.405431
267.373079
267.340880
267.308835
267.276944
267.245206
267.213622
267.182192
267.150917
267.119795
267.088828
267.058016
267.027358
266.996855
266.966507
266.936314
266.906275
266.876392
266.846663
266.817090
266.787671
266.758408
266.729300
266.700347
266.671549
266.642906
266.614418
266.586085
266.557907
266.529884
266.502016
266.474303
266.446744
266.419340
266.392090
266.364995
266.338054
266.311267
266.284634
266.258155
266.231830
266.205658
266.179640
266.153775
266.128063
266.102504
266.077098
266.051844
266.026742
266.001793
265.976995
265.952350
265.927855
265.903512
265.879319
265.855278
265.831386
265.807645
265.784053
265.760612
265.737319
265.714175
265.691180
265.668334
265.645635
265.623084
265.600681
265.578424
265.556314
265.534351
265.512533
265.490862
265.469335
265.447954
265.426716
265.405623
265.384674
265.363868
265.343206
265.322685
265.302307
265.282071
265.261975
265.242021
265.222207
265.202533
265.182999
265.163604
265.144348
265.125230
265.106249
265.087406
265.068700
265.050130
265.031696
265.013397
264.995233
264.977204
264.959309
264.941547
264.923918
264.906422
264.889057
264.871824
264.854722
264.837750
264.820908
264.804195
264.787611
264.771156
264.754828
264.738627
264.722553
264.706605
264.690783
264.675086
264.659513
264.644064
264.628739
264.613536
264.598456
264.583497
264.568660
264.553942
264.539345
264.524868
264.510509
264.496268
264.482145
264.468139
264.454250
264.440476
264.426818
264.413274
264.399845
264.386529
264.373327
264.360236
264.347258
264.334390
264.321633
264.308986
264.296449
264.284020
264.271700
264.259487
264.247381
264.235381
264.223488
264.211699
264.200015
264.188435
264.176958
264.165584
264.154312
264.143142
264.132073
264.121104
264.110234
264.099464
264.088793
264.078219
264.067742
264.057362
264.047079
264.036890
264.026797
264.016798
264.006892
263.997080
263.987359
263.977731
263.968194
263.958748
263.949391
263.940124
263.930946
263.921856
263.912854
263.903939
263.895110
263.886367
263.877709
263.869136
263.860647
263.852241
263.843919
263.835678
263.827519
263.819442
263.811444
263.803527
263.795689
263.787930
263.780249
263.772646
263.765119
263.757670
263.750296
263.742997
263.735773
263.728623
263.721547
263.714544
263.707613
263.700754
263.693967
263.687251
263.680604
263.674027
263.667520
263.661081
263.654710
263.648407
263.642170
263.636000
263.629896
263.623857
263.617883
263.611973
263.606127
263.600344
263.594624
263.588966
263.583369
263.577834
263.572359
263.566944
263.561589
263.556293
263.551055
263.545876
263.540754
263.535689
263.530680
263.525728
263.520831
263.515989
263.511202
263.506469
263.501789
263.497163
263.492589
263.488067
263.483597
263.479178
263.474810
263.470492
263.466224
263.462006
263.457836
263.453715
263.449642
263.445616
263.441637
263.437705
263.433819
263.429979
263.426185
263.422435
263.418730
263.415068
263.411451
263.407876
263.404345
263.400855
263.397408
263.394002
263.390637
263.387313
263.384030
263.380786
263.377581
263.374416
263.371290
263.368202
263.365151
263.362139
263.359163
263.356225
263.353322
263.350456
263.347625
263.344830
263.342070
263.339344
263.336653
263.333995
263.331371
263.328780
263.326221
263.323696
263.321202
263.318740
263.316310
263.313910
263.311541
263.309203
263.306895
263.304617
263.302368
263.300148
263.297957
263.295794
263.293660
263.291553
263.289474
263.287423
263.285398
263.283400
263.281428
263.279482
263.277562
263.275668
263.273798
263.271954
263.270134
263.268339
263.266567
263.264819
263.263095
263.261394
263.259716
263.258061
263.256428
263.254817
263.253229
263.251662
263.250116
263.248591
263.247088
263.245605
263.244142
263.242700
263.241277
263.239874
263.238491
263.237127
263.235781
263.234455
263.233147
263.231858
263.230586
263.229332
263.228096
263.226878
263.225676
263.224492
263.223324
263.222173
263.221039
263.219920
263.218818
263.217731
263.216660
263.215604
263.214564
263.213538
263.212527
263.211531
263.210550
263.209582
263.208629
263.207689
263.206763
263.205851
263.204952
263.204066
263.203194
263.202334
263.201487
263.200652
263.199830
263.199019
263.198221
263.197435
263.196661
263.195898
263.195146
263.194406
263.193676
263.192958
263.192251
263.191554
263.190868
263.190192
263.189526
263.188871
263.188225
263.187589
263.186963
263.186347
263.185740
263.185142
263.184554
263.183974
263.183404
263.182842
263.182289
263.181744
263.181208
263.180680
263.180161
263.179649
263.179146
263.178650
263.178163
263.177682
263.177210
263.176745
263.176287
263.175836
263.175393
263.174956
263.174527
263.174104
263.173688
263.173278
263.172876
263.172479
263.172089
263.171705
263.171328
263.170956
263.170591
263.170231
263.169877
263.169529
263.169186
263.168850
263.168518
263.168192
263.167871
263.167556
263.167245
263.166940
263.166640
263.166345
263.166054
263.165769
263.165488
263.165211
263.164940
263.164672
263.164409
263.164151
263.163897
263.163647
263.163401
263.163160
263.162922
263.162689
263.162459
263.162233
263.162011
263.161793
263.161578
263.161368
263.161160
263.160956
263.160756
263.160559
263.160365
263.160175
263.159988
263.159804
263.159623
263.159446
263.159271
263.159100
263.158931
263.158765
263.158603
263.158443
263.158285
263.158131
263.157979
263.157830
263.157683
263.157539
263.157397
263.157258
263.157122
263.156987
263.156856
263.156726
263.156599
263.156474
263.156351
263.156230
263.156111
263.155995
263.155880
263.155768
263.155658
263.155549
263.155443
263.155338
263.155235
263.155134
263.155035
263.154938
263.154842
263.154748
263.154656
263.154565
263.154477
263.154389
263.154303
263.154219
263.154136
263.154055
263.153975
263.153897
263.153820
263.153744
263.153670
263.153597
263.153526
263.153456
263.153387
263.153319
263.153253
263.153187
263.153123
263.153060
263.152998
263.152938
263.152878
263.152820
263.152762
263.152706
263.152650
263.152596
263.152543
263.152490
263.152439
263.152388
263.152339
263.152290
263.152242
263.152195
263.152149
263.152104
263.152059
263.152016
263.151973
263.151931
263.151889
263.151849
263.151809
263.151769
263.151731
263.151693
263.151656
263.151619
263.151584
263.151548
263.151514
263.151480
263.151446
263.151414
263.151381
263.151350
263.151318
263.151288
263.151258
263.151228
263.151199
263.151170
263.151142
263.151115
263.151087
263.151061
263.151034
263.151008
263.150983
263.150958
263.150933
263.150909
263.150885
263.150861
263.150838
263.150815
263.150793
263.150770
263.150749
263.150727
263.150706
263.150685
263.150664
263.150644
263.150624
263.150604
263.150584
263.150565
263.150546
263.150527
263.150508
263.150490
263.150471
263.150453
263.150435
263.150418
263.150400
263.150383
263.150366
263.150349
263.150332
263.150315
263.150299
263.150282
263.150266
263.150250
263.150233
263.150217
263.150202
263.150186
263.150170
263.150154
263.150139
263.150123
263.150108
263.150092
263.150077
263.150061
263.150046
263.150031
263.150015
263.150000
        </DataArray>
      </PointData>
      <CellData>
      </CellData>
    </Piece>
  </UnstructuredGrid>
</VTKFile>
