<?xml version="1.0"?>
<VTKFile type="UnstructuredGrid" version="0.1" byte_order="LittleEndian">
  <UnstructuredGrid>
    <Piece NumberOfPoints="801" NumberOfCells="800">
      <Points>
        <DataArray type="Float32" NumberOfComponents="3" format="ascii">
0.000000 0.0 0.0
0.005000 0.0 0.0
0.010000 0.0 0.0
0.015000 0.0 0.0
0.020000 0.0 0.0
0.025000 0.0 0.0
0.030000 0.0 0.0
0.035000 0.0 0.0
0.040000 0.0 0.0
0.045000 0.0 0.0
0.050000 0.0 0.0
0.055000 0.0 0.0
0.060000 0.0 0.0
0.065000 0.0 0.0
0.070000 0.0 0.0
0.075000 0.0 0.0
0.080000 0.0 0.0
0.085000 0.0 0.0
0.090000 0.0 0.0
0.095000 0.0 0.0
0.100000 0.0 0.0
0.105000 0.0 0.0
0.110000 0.0 0.0
0.115000 0.0 0.0
0.120000 0.0 0.0
0.125000 0.0 0.0
0.130000 0.0 0.0
0.135000 0.0 0.0
0.140000 0.0 0.0
0.145000 0.0 0.0
0.150000 0.0 0.0
0.155000 0.0 0.0
0.160000 0.0 0.0
0.165000 0.0 0.0
0.170000 0.0 0.0
0.175000 0.0 0.0
0.180000 0.0 0.0
0.185000 0.0 0.0
0.190000 0.0 0.0
0.195000 0.0 0.0
0.200000 0.0 0.0
0.205000 0.0 0.0
0.210000 0.0 0.0
0.215000 0.0 0.0
0.220000 0.0 0.0
0.225000 0.0 0.0
0.230000 0.0 0.0
0.235000 0.0 0.0
0.240000 0.0 0.0
0.245000 0.0 0.0
0.250000 0.0 0.0
0.255000 0.0 0.0
0.260000 0.0 0.0
0.265000 0.0 0.0
0.270000 0.0 0.0
0.275000 0.0 0.0
0.280000 0.0 0.0
0.285000 0.0 0.0
0.290000 0.0 0.0
0.295000 0.0 0.0
0.300000 0.0 0.0
0.305000 0.0 0.0
0.310000 0.0 0.0
0.315000 0.0 0.0
0.320000 0.0 0.0
0.325000 0.0 0.0
0.330000 0.0 0.0
0.335000 0.0 0.0
0.340000 0.0 0.0
0.345000 0.0 0.0
0.350000 0.0 0.0
0.355000 0.0 0.0
0.360000 0.0 0.0
0.365000 0.0 0.0
0.370000 0.0 0.0
0.375000 0.0 0.0
0.380000 0.0 0.0
0.385000 0.0 0.0
0.390000 0.0 0.0
0.395000 0.0 0.0
0.400000 0.0 0.0
0.405000 0.0 0.0
0.410000 0.0 0.0
0.415000 0.0 0.0
0.420000 0.0 0.0
0.425000 0.0 0.0
0.430000 0.0 0.0
0.435000 0.0 0.0
0.440000 0.0 0.0
0.445000 0.0 0.0
0.450000 0.0 0.0
0.455000 0.0 0.0
0.460000 0.0 0.0
0.465000 0.0 0.0
0.470000 0.0 0.0
0.475000 0.0 0.0
0.480000 0.0 0.0
0.485000 0.0 0.0
0.490000 0.0 0.0
0.495000 0.0 0.0
0.500000 0.0 0.0
0.505000 0.0 0.0
0.510000 0.0 0.0
0.515000 0.0 0.0
0.520000 0.0 0.0
0.525000 0.0 0.0
0.530000 0.0 0.0
0.535000 0.0 0.0
0.540000 0.0 0.0
0.545000 0.0 0.0
0.550000 0.0 0.0
0.555000 0.0 0.0
0.560000 0.0 0.0
0.565000 0.0 0.0
0.570000 0.0 0.0
0.575000 0.0 0.0
0.580000 0.0 0.0
0.585000 0.0 0.0
0.590000 0.0 0.0
0.595000 0.0 0.0
0.600000 0.0 0.0
0.605000 0.0 0.0
0.610000 0.0 0.0
0.615000 0.0 0.0
0.620000 0.0 0.0
0.625000 0.0 0.0
0.630000 0.0 0.0
0.635000 0.0 0.0
0.640000 0.0 0.0
0.645000 0.0 0.0
0.650000 0.0 0.0
0.655000 0.0 0.0
0.660000 0.0 0.0
0.665000 0.0 0.0
0.670000 0.0 0.0
0.675000 0.0 0.0
0.680000 0.0 0.0
0.685000 0.0 0.0
0.690000 0.0 0.0
0.695000 0.0 0.0
0.700000 0.0 0.0
0.705000 0.0 0.0
0.710000 0.0 0.0
0.715000 0.0 0.0
0.720000 0.0 0.0
0.725000 0.0 0.0
0.730000 0.0 0.0
0.735000 0.0 0.0
0.740000 0.0 0.0
0.745000 0.0 0.0
0.750000 0.0 0.0
0.755000 0.0 0.0
0.760000 0.0 0.0
0.765000 0.0 0.0
0.770000 0.0 0.0
0.775000 0.0 0.0
0.780000 0.0 0.0
0.785000 0.0 0.0
0.790000 0.0 0.0
0.795000 0.0 0.0
0.800000 0.0 0.0
0.805000 0.0 0.0
0.810000 0.0 0.0
0.815000 0.0 0.0
0.820000 0.0 0.0
0.825000 0.0 0.0
0.830000 0.0 0.0
0.835000 0.0 0.0
0.840000 0.0 0.0
0.845000 0.0 0.0
0.850000 0.0 0.0
0.855000 0.0 0.0
0.860000 0.0 0.0
0.865000 0.0 0.0
0.870000 0.0 0.0
0.875000 0.0 0.0
0.880000 0.0 0.0
0.885000 0.0 0.0
0.890000 0.0 0.0
0.895000 0.0 0.0
0.900000 0.0 0.0
0.905000 0.0 0.0
0.910000 0.0 0.0
0.915000 0.0 0.0
0.920000 0.0 0.0
0.925000 0.0 0.0
0.930000 0.0 0.0
0.935000 0.0 0.0
0.940000 0.0 0.0
0.945000 0.0 0.0
0.950000 0.0 0.0
0.955000 0.0 0.0
0.960000 0.0 0.0
0.965000 0.0 0.0
0.970000 0.0 0.0
0.975000 0.0 0.0
0.980000 0.0 0.0
0.985000 0.0 0.0
0.990000 0.0 0.0
0.995000 0.0 0.0
1.000000 0.0 0.0
1.005000 0.0 0.0
1.010000 0.0 0.0
1.015000 0.0 0.0
1.020000 0.0 0.0
1.025000 0.0 0.0
1.030000 0.0 0.0
1.035000 0.0 0.0
1.040000 0.0 0.0
1.045000 0.0 0.0
1.050000 0.0 0.0
1.055000 0.0 0.0
1.060000 0.0 0.0
1.065000 0.0 0.0
1.070000 0.0 0.0
1.075000 0.0 0.0
1.080000 0.0 0.0
1.085000 0.0 0.0
1.090000 0.0 0.0
1.095000 0.0 0.0
1.100000 0.0 0.0
1.105000 0.0 0.0
1.110000 0.0 0.0
1.115000 0.0 0.0
1.120000 0.0 0.0
1.125000 0.0 0.0
1.130000 0.0 0.0
1.135000 0.0 0.0
1.140000 0.0 0.0
1.145000 0.0 0.0
1.150000 0.0 0.0
1.155000 0.0 0.0
1.160000 0.0 0.0
1.165000 0.0 0.0
1.170000 0.0 0.0
1.175000 0.0 0.0
1.180000 0.0 0.0
1.185000 0.0 0.0
1.190000 0.0 0.0
1.195000 0.0 0.0
1.200000 0.0 0.0
1.205000 0.0 0.0
1.210000 0.0 0.0
1.215000 0.0 0.0
1.220000 0.0 0.0
1.225000 0.0 0.0
1.230000 0.0 0.0
1.235000 0.0 0.0
1.240000 0.0 0.0
1.245000 0.0 0.0
1.250000 0.0 0.0
1.255000 0.0 0.0
1.260000 0.0 0.0
1.265000 0.0 0.0
1.270000 0.0 0.0
1.275000 0.0 0.0
1.280000 0.0 0.0
1.285000 0.0 0.0
1.290000 0.0 0.0
1.295000 0.0 0.0
1.300000 0.0 0.0
1.305000 0.0 0.0
1.310000 0.0 0.0
1.315000 0.0 0.0
1.320000 0.0 0.0
1.325000 0.0 0.0
1.330000 0.0 0.0
1.335000 0.0 0.0
1.340000 0.0 0.0
1.345000 0.0 0.0
1.350000 0.0 0.0
1.355000 0.0 0.0
1.360000 0.0 0.0
1.365000 0.0 0.0
1.370000 0.0 0.0
1.375000 0.0 0.0
1.380000 0.0 0.0
1.385000 0.0 0.0
1.390000 0.0 0.0
1.395000 0.0 0.0
1.400000 0.0 0.0
1.405000 0.0 0.0
1.410000 0.0 0.0
1.415000 0.0 0.0
1.420000 0.0 0.0
1.425000 0.0 0.0
1.430000 0.0 0.0
1.435000 0.0 0.0
1.440000 0.0 0.0
1.445000 0.0 0.0
1.450000 0.0 0.0
1.455000 0.0 0.0
1.460000 0.0 0.0
1.465000 0.0 0.0
1.470000 0.0 0.0
1.475000 0.0 0.0
1.480000 0.0 0.0
1.485000 0.0 0.0
1.490000 0.0 0.0
1.495000 0.0 0.0
1.500000 0.0 0.0
1.505000 0.0 0.0
1.510000 0.0 0.0
1.515000 0.0 0.0
1.520000 0.0 0.0
1.525000 0.0 0.0
1.530000 0.0 0.0
1.535000 0.0 0.0
1.540000 0.0 0.0
1.545000 0.0 0.0
1.550000 0.0 0.0
1.555000 0.0 0.0
1.560000 0.0 0.0
1.565000 0.0 0.0
1.570000 0.0 0.0
1.575000 0.0 0.0
1.580000 0.0 0.0
1.585000 0.0 0.0
1.590000 0.0 0.0
1.595000 0.0 0.0
1.600000 0.0 0.0
1.605000 0.0 0.0
1.610000 0.0 0.0
1.615000 0.0 0.0
1.620000 0.0 0.0
1.625000 0.0 0.0
1.630000 0.0 0.0
1.635000 0.0 0.0
1.640000 0.0 0.0
1.645000 0.0 0.0
1.650000 0.0 0.0
1.655000 0.0 0.0
1.660000 0.0 0.0
1.665000 0.0 0.0
1.670000 0.0 0.0
1.675000 0.0 0.0
1.680000 0.0 0.0
1.685000 0.0 0.0
1.690000 0.0 0.0
1.695000 0.0 0.0
1.700000 0.0 0.0
1.705000 0.0 0.0
1.710000 0.0 0.0
1.715000 0.0 0.0
1.720000 0.0 0.0
1.725000 0.0 0.0
1.730000 0.0 0.0
1.735000 0.0 0.0
1.740000 0.0 0.0
1.745000 0.0 0.0
1.750000 0.0 0.0
1.755000 0.0 0.0
1.760000 0.0 0.0
1.765000 0.0 0.0
1.770000 0.0 0.0
1.775000 0.0 0.0
1.780000 0.0 0.0
1.785000 0.0 0.0
1.790000 0.0 0.0
1.795000 0.0 0.0
1.800000 0.0 0.0
1.805000 0.0 0.0
1.810000 0.0 0.0
1.815000 0.0 0.0
1.820000 0.0 0.0
1.825000 0.0 0.0
1.830000 0.0 0.0
1.835000 0.0 0.0
1.840000 0.0 0.0
1.845000 0.0 0.0
1.850000 0.0 0.0
1.855000 0.0 0.0
1.860000 0.0 0.0
1.865000 0.0 0.0
1.870000 0.0 0.0
1.875000 0.0 0.0
1.880000 0.0 0.0
1.885000 0.0 0.0
1.890000 0.0 0.0
1.895000 0.0 0.0
1.900000 0.0 0.0
1.905000 0.0 0.0
1.910000 0.0 0.0
1.915000 0.0 0.0
1.920000 0.0 0.0
1.925000 0.0 0.0
1.930000 0.0 0.0
1.935000 0.0 0.0
1.940000 0.0 0.0
1.945000 0.0 0.0
1.950000 0.0 0.0
1.955000 0.0 0.0
1.960000 0.0 0.0
1.965000 0.0 0.0
1.970000 0.0 0.0
1.975000 0.0 0.0
1.980000 0.0 0.0
1.985000 0.0 0.0
1.990000 0.0 0.0
1.995000 0.0 0.0
2.000000 0.0 0.0
2.005000 0.0 0.0
2.010000 0.0 0.0
2.015000 0.0 0.0
2.020000 0.0 0.0
2.025000 0.0 0.0
2.030000 0.0 0.0
2.035000 0.0 0.0
2.040000 0.0 0.0
2.045000 0.0 0.0
2.050000 0.0 0.0
2.055000 0.0 0.0
2.060000 0.0 0.0
2.065000 0.0 0.0
2.070000 0.0 0.0
2.075000 0.0 0.0
2.080000 0.0 0.0
2.085000 0.0 0.0
2.090000 0.0 0.0
2.095000 0.0 0.0
2.100000 0.0 0.0
2.105000 0.0 0.0
2.110000 0.0 0.0
2.115000 0.0 0.0
2.120000 0.0 0.0
2.125000 0.0 0.0
2.130000 0.0 0.0
2.135000 0.0 0.0
2.140000 0.0 0.0
2.145000 0.0 0.0
2.150000 0.0 0.0
2.155000 0.0 0.0
2.160000 0.0 0.0
2.165000 0.0 0.0
2.170000 0.0 0.0
2.175000 0.0 0.0
2.180000 0.0 0.0
2.185000 0.0 0.0
2.190000 0.0 0.0
2.195000 0.0 0.0
2.200000 0.0 0.0
2.205000 0.0 0.0
2.210000 0.0 0.0
2.215000 0.0 0.0
2.220000 0.0 0.0
2.225000 0.0 0.0
2.230000 0.0 0.0
2.235000 0.0 0.0
2.240000 0.0 0.0
2.245000 0.0 0.0
2.250000 0.0 0.0
2.255000 0.0 0.0
2.260000 0.0 0.0
2.265000 0.0 0.0
2.270000 0.0 0.0
2.275000 0.0 0.0
2.280000 0.0 0.0
2.285000 0.0 0.0
2.290000 0.0 0.0
2.295000 0.0 0.0
2.300000 0.0 0.0
2.305000 0.0 0.0
2.310000 0.0 0.0
2.315000 0.0 0.0
2.320000 0.0 0.0
2.325000 0.0 0.0
2.330000 0.0 0.0
2.335000 0.0 0.0
2.340000 0.0 0.0
2.345000 0.0 0.0
2.350000 0.0 0.0
2.355000 0.0 0.0
2.360000 0.0 0.0
2.365000 0.0 0.0
2.370000 0.0 0.0
2.375000 0.0 0.0
2.380000 0.0 0.0
2.385000 0.0 0.0
2.390000 0.0 0.0
2.395000 0.0 0.0
2.400000 0.0 0.0
2.405000 0.0 0.0
2.410000 0.0 0.0
2.415000 0.0 0.0
2.420000 0.0 0.0
2.425000 0.0 0.0
2.430000 0.0 0.0
2.435000 0.0 0.0
2.440000 0.0 0.0
2.445000 0.0 0.0
2.450000 0.0 0.0
2.455000 0.0 0.0
2.460000 0.0 0.0
2.465000 0.0 0.0
2.470000 0.0 0.0
2.475000 0.0 0.0
2.480000 0.0 0.0
2.485000 0.0 0.0
2.490000 0.0 0.0
2.495000 0.0 0.0
2.500000 0.0 0.0
2.505000 0.0 0.0
2.510000 0.0 0.0
2.515000 0.0 0.0
2.520000 0.0 0.0
2.525000 0.0 0.0
2.530000 0.0 0.0
2.535000 0.0 0.0
2.540000 0.0 0.0
2.545000 0.0 0.0
2.550000 0.0 0.0
2.555000 0.0 0.0
2.560000 0.0 0.0
2.565000 0.0 0.0
2.570000 0.0 0.0
2.575000 0.0 0.0
2.580000 0.0 0.0
2.585000 0.0 0.0
2.590000 0.0 0.0
2.595000 0.0 0.0
2.600000 0.0 0.0
2.605000 0.0 0.0
2.610000 0.0 0.0
2.615000 0.0 0.0
2.620000 0.0 0.0
2.625000 0.0 0.0
2.630000 0.0 0.0
2.635000 0.0 0.0
2.640000 0.0 0.0
2.645000 0.0 0.0
2.650000 0.0 0.0
2.655000 0.0 0.0
2.660000 0.0 0.0
2.665000 0.0 0.0
2.670000 0.0 0.0
2.675000 0.0 0.0
2.680000 0.0 0.0
2.685000 0.0 0.0
2.690000 0.0 0.0
2.695000 0.0 0.0
2.700000 0.0 0.0
2.705000 0.0 0.0
2.710000 0.0 0.0
2.715000 0.0 0.0
2.720000 0.0 0.0
2.725000 0.0 0.0
2.730000 0.0 0.0
2.735000 0.0 0.0
2.740000 0.0 0.0
2.745000 0.0 0.0
2.750000 0.0 0.0
2.755000 0.0 0.0
2.760000 0.0 0.0
2.765000 0.0 0.0
2.770000 0.0 0.0
2.775000 0.0 0.0
2.780000 0.0 0.0
2.785000 0.0 0.0
2.790000 0.0 0.0
2.795000 0.0 0.0
2.800000 0.0 0.0
2.805000 0.0 0.0
2.810000 0.0 0.0
2.815000 0.0 0.0
2.820000 0.0 0.0
2.825000 0.0 0.0
2.830000 0.0 0.0
2.835000 0.0 0.0
2.840000 0.0 0.0
2.845000 0.0 0.0
2.850000 0.0 0.0
2.855000 0.0 0.0
2.860000 0.0 0.0
[...]
      <PointData Scalars="Temperature">
        <DataArray type="Float32" Name="Temperature" format="ascii">
308.150000
306.985794
305.821947
304.658815
303.496758
302.336130
301.177287
300.020583
298.866370
297.714995
296.566808
295.422150
294.281362
293.144783
292.012745
290.885576
289.763601
288.647139
287.536504
286.432004
285.333940
284.242607
283.158293
282.081278
281.011832
279.950218
278.896690
277.851491
276.814854
275.787004
274.768639
273.809405
273.275811
273.043172
272.900144
272.792224
272.701997
272.622062
272.548661
272.479650
272.413709
272.349979
272.287876
272.226996
272.167048
272.107823
272.049167
271.990967
271.933139
271.875621
271.818365
271.761336
271.704509
271.647865
271.591390
271.535072
271.478906
271.422886
271.367008
271.311271
271.255673
271.200214
271.144894
271.089714
271.034675
270.979777
270.925024
270.870415
270.815952
270.761638
270.707474
270.653461
270.599602
270.545898
270.492351
270.438964
270.385736
270.332672
270.279772
270.227038
270.174471
270.122075
270.069849
270.017797
269.965920
269.914218
269.862695
269.811352
269.760190
269.709210
269.658416
269.607807
269.557385
269.507153
269.457111
269.407261
269.357604
269.308143
269.258877
269.209809
269.160940
269.112271
269.063803
269.015539
268.967478
268.919623
268.871974
268.824533
268.777301
268.730278
268.683467
268.636868
268.590483
268.544311
268.498355
268.452615
268.407092
268.361788
268.316703
268.271838
268.227194
268.182771
268.138572
268.094595
268.050843
268.007316
267.964015
267.920940
267.878092
267.835472
267.793081
267.750918
267.708985
267.667283
267.625811
267.584570
267.543562
267.502785
267.462241
267.421931
267.381854
267.342011
267.302402
267.263028
267.223889
267.184985
267.146317
267.107884
267.069688
267.031728
266.994004
266.956517
266.919266
266.882253
266.845476
266.808936
266.772634
266.736569
266.700740
266.665149
266.629795
266.594678
266.559798
266.525155
266.490748
266.456579
266.422645
266.388949
266.355488
266.322263
266.289274
266.256520
266.224001
266.191718
266.159669
266.127854
266.096273
266.064926
266.033812
266.002930
265.972281
265.941864
265.911679
265.881725
265.852001
265.822507
265.793243
265.764208
265.735401
265.706822
265.678471
265.650346
265.622448
265.594775
265.567327
265.540103
265.513103
265.486326
265.459771
265.433438
265.407325
265.381432
265.355759
265.330304
265.305067
265.280047
265.255243
265.230655
265.206281
265.182121
265.158174
265.134439
265.110915
265.087602
265.064497
265.041602
265.018914
264.996433
264.974157
264.952086
264.930220
264.908556
264.887094
264.865833
264.844773
264.823911
264.803247
264.782781
264.762510
264.742434
264.722553
264.702864
264.683368
264.664062
264.644946
264.626019
264.607280
264.588727
264.570360
264.552177
264.534177
264.516360
264.498725
264.481269
264.463992
264.446894
264.429972
264.413225
264.396654
264.380255
264.364030
264.347975
264.332090
264.316374
264.300826
264.285445
264.270229
264.255178
264.240290
264.225563
264.210998
264.196593
264.182346
264.168257
264.154324
264.140546
264.126922
264.113451
264.100132
264.086963
264.073944
264.061073
264.048349
264.035771
264.023338
264.011049
263.998902
263.986896
263.975031
263.963305
263.951716
263.940265
263.928949
263.917767
263.906719
263.895803
263.885019
263.874364
263.863838
263.853440
263.843168
263.833022
263.823001
263.813102
263.803326
263.793671
263.784135
263.774719
263.765420
263.756238
263.747172
263.738220
263.729382
263.720656
263.712041
263.703536
263.695141
263.686853
263.678673
263.670599
263.662629
263.654764
263.647001
263.639341
263.631781
263.624320
263.616959
263.609696
263.602529
263.595458
263.588482
263.581599
263.574810
263.568112
263.561505
263.554988
263.548560
263.542220
263.535967
263.529801
263.523719
263.517721
263.511807
263.505976
263.500225
263.494556
263.488966
263.483455
263.478021
263.472665
263.467385
263.462180
263.457050
263.451993
263.447008
263.442096
263.437255
263.432483
263.427781
263.423148
263.418583
263.414084
263.409651
263.405284
263.400981
263.396742
263.392566
263.388452
263.384400
263.380408
263.376476
263.372604
263.368789
263.365033
263.361333
263.357690
263.354103
263.350570
263.347091
263.343666
263.340294
263.336973
263.333704
263.330486
263.327318
263.324200
263.321130
263.318108
263.315134
263.312207
263.309326
263.306491
263.303700
263.300955
263.298252
263.295594
263.292977
263.290403
263.287871
263.285379
263.282927
263.280516
263.278144
263.275810
263.273514
263.271256
263.269036
263.266851
263.264703
263.262591
263.260513
263.258470
263.256461
263.254485
263.252543
263.250633
263.248755
263.246909
263.245094
263.243310
263.241556
263.239832
263.238137
263.236471
263.234834
263.233225
263.231643
263.230089
263.228562
263.227061
263.225586
263.224137
263.222713
263.221314
263.219939
263.218588
263.217262
263.215958
263.214678
263.213420
263.212185
263.210971
263.209779
263.208609
263.207459
263.206330
263.205221
263.204132
263.203063
263.202013
263.200982
263.199970
263.198976
263.198000
263.197043
263.196102
263.195179
263.194273
263.193384
263.192510
263.191654
263.190813
263.189987
263.189177
263.188382
263.187602
263.186836
263.186085
263.185348
263.184625
263.183915
263.183219
263.182536
263.181866
263.181209
263.180564
263.179931
263.179311
263.178702
263.178105
263.177520
263.176946
263.176383
263.175831
263.175289
263.174758
263.174238
263.173727
263.173227
263.172736
263.172255
263.171783
263.171321
263.170868
263.170423
263.169988
263.169561
263.169142
263.168732
263.168330
263.167936
263.167550
263.167172
263.166801
263.166438
263.166082
263.165733
263.165391
263.165056
263.164728
263.164407
263.164092
263.163784
263.163482
263.163186
263.162896
263.162612
263.162334
263.162061
263.161795
263.161533
263.161278
263.161027
263.160782
263.160542
263.160306
263.160076
263.159851
263.159630
263.159414
263.159202
263.158995
263.158793
263.158594
263.158400
263.158210
263.158024
263.157842
263.157663
263.157489
263.157318
263.157151
263.156988
263.156828
263.156671
263.156518
263.156368
263.156222
263.156078
263.155938
263.155801
263.155666
263.155535
263.155407
263.155281
263.155158
263.155038
263.154920
263.154805
263.154693
263.154583
263.154475
263.154370
263.154267
263.154167
263.154068
263.153972
263.153878
263.153786
263.153697
263.153609
263.153523
263.153439
263.153357
263.153277
263.153199
263.153122
263.153047
263.152974
263.152903
263.152833
263.152764
263.152698
263.152633
263.152569
263.152507
263.152446
263.152386
263.152328
263.152272
263.152216
263.152162
263.152109
263.152058
263.152007
263.151958
263.151910
263.151863
263.151817
263.151772
263.151729
263.151686
263.151644
263.151603
263.151564
263.151525
263.151487
263.151450
263.151414
263.151378
263.151344
263.151310
263.151277
263.151245
263.151214
263.151184
263.151154
263.151125
263.151096
263.151069
263.151042
263.151015
263.150989
263.150964
263.150940
263.150916
263.150893
263.150870
263.150848
263.150826
263.150805
263.150784
263.150764
263.150744
263.150725
263.150707
263.150688
263.150671
263.150653
263.150636
263.150620
263.150604
263.150588
263.150573
263.150558
263.150543
263.150529
263.150515
263.150502
263.150489
263.150476
263.150463
263.150451
263.150439
263.150428
263.150417
263.150406
263.150395
263.150384
263.150374
263.150364
263.150355
263.150345
263.150336
263.150327
263.150318
263.150310
263.150302
263.150294
263.150286
263.150278
263.150271
263.150263
263.150256
263.150249
263.150243
263.150236
263.150230
263.150223
263.150217
263.150212
263.150206
263.150200
263.150195
263.150189
263.150184
263.150179
263.150174
263.150170
263.150165
263.150160
263.150156
263.150152
263.150148
263.150143
263.150140
263.150136
263.150132
263.150128
263.150125
263.150121
263.150118
263.150115
263.150111
263.150108
263.150105
263.150102
263.150100
263.150097
263.150094
263.150091
263.150089
263.150086
263.150084
263.150082
263.150079
263.150077
263.150075
263.150073
263.150071
263.150069
263.150067
263.150065
263.150063
263.150061
263.150059
263.150058
263.150056
263.150054
263.150053
263.150051
263.150050
263.150048
263.150047
263.150046
263.150044
263.150043
263.150042
263.150040
263.150039
263.150038
263.150037
263.150036
263.150035
263.150034
263.150033
263.150032
263.150031
263.150030
263.150029
263.150028
263.150027
263.150026
263.150026
263.150025
263.150024
263.150023
263.150023
263.150022
263.150021
263.150020
263.150020
263.150019
263.150019
263.150018
263.150017
263.150017
263.150016
263.150016
263.150015
263.150015
263.150014
263.150014
263.150013
263.150013
263.150012
263.150012
263.150011
263.150011
263.150010
263.150010
263.150010
263.150009
263.150009
263.150008
263.150008
263.150008
263.150007
263.150007
263.150007
263.150006
263.150006
263.150005
263.150005
263.150005
263.150005
263.150004
263.150004
263.150004
263.150003
263.150003
263.150003
263.150002
263.150002
263.150002
263.150001
263.150001
263.150001
263.150001
263.150000
263.150000
        </DataArray>
      </PointData>
      <CellData>
      </CellData>
    </Piece>
  </UnstructuredGrid>
</VTKFile>
