<?xml version="1.0"?>
<VTKFile type="UnstructuredGrid" version="0.1" byte_order="LittleEndian">
  <UnstructuredGrid>
    <Piece NumberOfPoints="801" NumberOfCells="800">
      <Points>
        <DataArray type="Float32" NumberOfComponents="3" format="ascii">
0.000000 0.0 0.0
0.005000 0.0 0.0
0.010000 0.0 0.0
0.015000 0.0 0.0
0.020000 0.0 0.0
0.025000 0.0 0.0
0.030000 0.0 0.0
0.035000 0.0 0.0
0.040000 0.0 0.0
0.045000 0.0 0.0
0.050000 0.0 0.0
0.055000 0.0 0.0
0.060000 0.0 0.0
0.065000 0.0 0.0
0.070000 0.0 0.0
0.075000 0.0 0.0
0.080000 0.0 0.0
0.085000 0.0 0.0
0.090000 0.0 0.0
0.095000 0.0 0.0
0.100000 0.0 0.0
0.105000 0.0 0.0
0.110000 0.0 0.0
0.115000 0.0 0.0
0.120000 0.0 0.0
0.125000 0.0 0.0
0.130000 0.0 0.0
0.135000 0.0 0.0
0.140000 0.0 0.0
0.145000 0.0 0.0
0.150000 0.0 0.0
0.155000 0.0 0.0
0.160000 0.0 0.0
0.165000 0.0 0.0
0.170000 0.0 0.0
0.175000 0.0 0.0
0.180000 0.0 0.0
0.185000 0.0 0.0
0.190000 0.0 0.0
0.195000 0.0 0.0
0.200000 0.0 0.0
0.205000 0.0 0.0
0.210000 0.0 0.0
0.215000 0.0 0.0
0.220000 0.0 0.0
0.225000 0.0 0.0
0.230000 0.0 0.0
0.235000 0.0 0.0
0.240000 0.0 0.0
0.245000 0.0 0.0
0.250000 0.0 0.0
0.255000 0.0 0.0
0.260000 0.0 0.0
0.265000 0.0 0.0
0.270000 0.0 0.0
0.275000 0.0 0.0
0.280000 0.0 0.0
0.285000 0.0 0.0
0.290000 0.0 0.0
0.295000 0.0 0.0
0.300000 0.0 0.0
0.305000 0.0 0.0
0.310000 0.0 0.0
0.315000 0.0 0.0
0.320000 0.0 0.0
0.325000 0.0 0.0
0.330000 0.0 0.0
0.335000 0.0 0.0
0.340000 0.0 0.0
0.345000 0.0 0.0
0.350000 0.0 0.0
0.355000 0.0 0.0
0.360000 0.0 0.0
0.365000 0.0 0.0
0.370000 0.0 0.0
0.375000 0.0 0.0
0.380000 0.0 0.0
0.385000 0.0 0.0
0.390000 0.0 0.0
0.395000 0.0 0.0
0.400000 0.0 0.0
0.405000 0.0 0.0
0.410000 0.0 0.0
0.415000 0.0 0.0
0.420000 0.0 0.0
0.425000 0.0 0.0
0.430000 0.0 0.0
0.435000 0.0 0.0
0.440000 0.0 0.0
0.445000 0.0 0.0
0.450000 0.0 0.0
0.455000 0.0 0.0
0.460000 0.0 0.0
0.465000 0.0 0.0
0.470000 0.0 0.0
0.475000 0.0 0.0
0.480000 0.0 0.0
0.485000 0.0 0.0
0.490000 0.0 0.0
0.495000 0.0 0.0
0.500000 0.0 0.0
0.505000 0.0 0.0
0.510000 0.0 0.0
0.515000 0.0 0.0
0.520000 0.0 0.0
0.525000 0.0 0.0
0.530000 0.0 0.0
0.535000 0.0 0.0
0.540000 0.0 0.0
0.545000 0.0 0.0
0.550000 0.0 0.0
0.555000 0.0 0.0
0.560000 0.0 0.0
0.565000 0.0 0.0
0.570000 0.0 0.0
0.575000 0.0 0.0
0.580000 0.0 0.0
0.585000 0.0 0.0
0.590000 0.0 0.0
0.595000 0.0 0.0
0.600000 0.0 0.0
0.605000 0.0 0.0
0.610000 0.0 0.0
0.615000 0.0 0.0
0.620000 0.0 0.0
0.625000 0.0 0.0
0.630000 0.0 0.0
0.635000 0.0 0.0
0.640000 0.0 0.0
0.645000 0.0 0.0
0.650000 0.0 0.0
0.655000 0.0 0.0
0.660000 0.0 0.0
0.665000 0.0 0.0
0.670000 0.0 0.0
0.675000 0.0 0.0
0.680000 0.0 0.0
0.685000 0.0 0.0
0.690000 0.0 0.0
0.695000 0.0 0.0
0.700000 0.0 0.0
0.705000 0.0 0.0
0.710000 0.0 0.0
0.715000 0.0 0.0
0.720000 0.0 0.0
0.725000 0.0 0.0
0.730000 0.0 0.0
0.735000 0.0 0.0
0.740000 0.0 0.0
0.745000 0.0 0.0
0.750000 0.0 0.0
0.755000 0.0 0.0
0.760000 0.0 0.0
0.765000 0.0 0.0
0.770000 0.0 0.0
0.775000 0.0 0.0
0.780000 0.0 0.0
0.785000 0.0 0.0
0.790000 0.0 0.0
0.795000 0.0 0.0
0.800000 0.0 0.0
0.805000 0.0 0.0
0.810000 0.0 0.0
0.815000 0.0 0.0
0.820000 0.0 0.0
0.825000 0.0 0.0
0.830000 0.0 0.0
0.835000 0.0 0.0
0.840000 0.0 0.0
0.845000 0.0 0.0
0.850000 0.0 0.0
0.855000 0.0 0.0
0.860000 0.0 0.0
0.865000 0.0 0.0
0.870000 0.0 0.0
0.875000 0.0 0.0
0.880000 0.0 0.0
0.885000 0.0 0.0
0.890000 0.0 0.0
0.895000 0.0 0.0
0.900000 0.0 0.0
0.905000 0.0 0.0
0.910000 0.0 0.0
0.915000 0.0 0.0
0.920000 0.0 0.0
0.925000 0.0 0.0
0.930000 0.0 0.0
0.935000 0.0 0.0
0.940000 0.0 0.0
0.945000 0.0 0.0
0.950000 0.0 0.0
0.955000 0.0 0.0
0.960000 0.0 0.0
0.965000 0.0 0.0
0.970000 0.0 0.0
0.975000 0.0 0.0
0.980000 0.0 0.0
0.985000 0.0 0.0
0.990000 0.0 0.0
0.995000 0.0 0.0
1.000000 0.0 0.0
1.005000 0.0 0.0
1.010000 0.0 0.0
1.015000 0.0 0.0
1.020000 0.0 0.0
1.025000 0.0 0.0
1.030000 0.0 0.0
1.035000 0.0 0.0
1.040000 0.0 0.0
1.045000 0.0 0.0
1.050000 0.0 0.0
1.055000 0.0 0.0
1.060000 0.0 0.0
1.065000 0.0 0.0
1.070000 0.0 0.0
1.075000 0.0 0.0
1.080000 0.0 0.0
1.085000 0.0 0.0
1.090000 0.0 0.0
1.095000 0.0 0.0
1.100000 0.0 0.0
1.105000 0.0 0.0
1.110000 0.0 0.0
1.115000 0.0 0.0
1.120000 0.0 0.0
1.125000 0.0 0.0
1.130000 0.0 0.0
1.135000 0.0 0.0
1.140000 0.0 0.0
1.145000 0.0 0.0
1.150000 0.0 0.0
1.155000 0.0 0.0
1.160000 0.0 0.0
1.165000 0.0 0.0
1.170000 0.0 0.0
1.175000 0.0 0.0
1.180000 0.0 0.0
1.185000 0.0 0.0
1.190000 0.0 0.0
1.195000 0.0 0.0
1.200000 0.0 0.0
1.205000 0.0 0.0
1.210000 0.0 0.0
1.215000 0.0 0.0
1.220000 0.0 0.0
1.225000 0.0 0.0
1.230000 0.0 0.0
1.235000 0.0 0.0
1.240000 0.0 0.0
1.245000 0.0 0.0
1.250000 0.0 0.0
1.255000 0.0 0.0
1.260000 0.0 0.0
1.265000 0.0 0.0
1.270000 0.0 0.0
1.275000 0.0 0.0
1.280000 0.0 0.0
1.285000 0.0 0.0
1.290000 0.0 0.0
1.295000 0.0 0.0
1.300000 0.0 0.0
1.305000 0.0 0.0
1.310000 0.0 0.0
1.315000 0.0 0.0
1.320000 0.0 0.0
1.325000 0.0 0.0
1.330000 0.0 0.0
1.335000 0.0 0.0
1.340000 0.0 0.0
1.345000 0.0 0.0
1.350000 0.0 0.0
1.355000 0.0 0.0
1.360000 0.0 0.0
1.365000 0.0 0.0
1.370000 0.0 0.0
1.375000 0.0 0.0
1.380000 0.0 0.0
1.385000 0.0 0.0
1.390000 0.0 0.0
1.395000 0.0 0.0
1.400000 0.0 0.0
1.405000 0.0 0.0
1.410000 0.0 0.0
1.415000 0.0 0.0
1.420000 0.0 0.0
1.425000 0.0 0.0
1.430000 0.0 0.0
1.435000 0.0 0.0
1.440000 0.0 0.0
1.445000 0.0 0.0
1.450000 0.0 0.0
1.455000 0.0 0.0
1.460000 0.0 0.0
1.465000 0.0 0.0
1.470000 0.0 0.0
1.475000 0.0 0.0
1.480000 0.0 0.0
1.485000 0.0 0.0
1.490000 0.0 0.0
1.495000 0.0 0.0
1.500000 0.0 0.0
1.505000 0.0 0.0
1.510000 0.0 0.0
1.515000 0.0 0.0
1.520000 0.0 0.0
1.525000 0.0 0.0
1.530000 0.0 0.0
1.535000 0.0 0.0
1.540000 0.0 0.0
1.545000 0.0 0.0
1.550000 0.0 0.0
1.555000 0.0 0.0
1.560000 0.0 0.0
1.565000 0.0 0.0
1.570000 0.0 0.0
1.575000 0.0 0.0
1.580000 0.0 0.0
1.585000 0.0 0.0
1.590000 0.0 0.0
1.595000 0.0 0.0
1.600000 0.0 0.0
1.605000 0.0 0.0
1.610000 0.0 0.0
1.615000 0.0 0.0
1.620000 0.0 0.0
1.625000 0.0 0.0
1.630000 0.0 0.0
1.635000 0.0 0.0
1.640000 0.0 0.0
1.645000 0.0 0.0
1.650000 0.0 0.0
1.655000 0.0 0.0
1.660000 0.0 0.0
1.665000 0.0 0.0
1.670000 0.0 0.0
1.675000 0.0 0.0
1.680000 0.0 0.0
1.685000 0.0 0.0
1.690000 0.0 0.0
1.695000 0.0 0.0
1.700000 0.0 0.0
1.705000 0.0 0.0
1.710000 0.0 0.0
1.715000 0.0 0.0
1.720000 0.0 0.0
1.725000 0.0 0.0
1.730000 0.0 0.0
1.735000 0.0 0.0
1.740000 0.0 0.0
1.745000 0.0 0.0
1.750000 0.0 0.0
1.755000 0.0 0.0
1.760000 0.0 0.0
1.765000 0.0 0.0
1.770000 0.0 0.0
1.775000 0.0 0.0
1.780000 0.0 0.0
1.785000 0.0 0.0
1.790000 0.0 0.0
1.795000 0.0 0.0
1.800000 0.0 0.0
1.805000 0.0 0.0
1.810000 0.0 0.0
1.815000 0.0 0.0
1.820000 0.0 0.0
1.825000 0.0 0.0
1.830000 0.0 0.0
1.835000 0.0 0.0
1.840000 0.0 0.0
1.845000 0.0 0.0
1.850000 0.0 0.0
1.855000 0.0 0.0
1.860000 0.0 0.0
1.865000 0.0 0.0
1.870000 0.0 0.0
1.875000 0.0 0.0
1.880000 0.0 0.0
1.885000 0.0 0.0
1.890000 0.0 0.0
1.895000 0.0 0.0
1.900000 0.0 0.0
1.905000 0.0 0.0
1.910000 0.0 0.0
1.915000 0.0 0.0
1.920000 0.0 0.0
1.925000 0.0 0.0
1.930000 0.0 0.0
1.935000 0.0 0.0
1.940000 0.0 0.0
1.945000 0.0 0.0
1.950000 0.0 0.0
1.955000 0.0 0.0
1.960000 0.0 0.0
1.965000 0.0 0.0
1.970000 0.0 0.0
1.975000 0.0 0.0
1.980000 0.0 0.0
1.985000 0.0 0.0
1.990000 0.0 0.0
1.995000 0.0 0.0
2.000000 0.0 0.0
2.005000 0.0 0.0
2.010000 0.0 0.0
2.015000 0.0 0.0
2.020000 0.0 0.0
2.025000 0.0 0.0
2.030000 0.0 0.0
2.035000 0.0 0.0
2.040000 0.0 0.0
2.045000 0.0 0.0
2.050000 0.0 0.0
2.055000 0.0 0.0
2.060000 0.0 0.0
2.065000 0.0 0.0
2.070000 0.0 0.0
2.075000 0.0 0.0
2.080000 0.0 0.0
2.085000 0.0 0.0
2.090000 0.0 0.0
2.095000 0.0 0.0
2.100000 0.0 0.0
2.105000 0.0 0.0
2.110000 0.0 0.0
2.115000 0.0 0.0
2.120000 0.0 0.0
2.125000 0.0 0.0
2.130000 0.0 0.0
2.135000 0.0 0.0
2.140000 0.0 0.0
2.145000 0.0 0.0
2.150000 0.0 0.0
2.155000 0.0 0.0
2.160000 0.0 0.0
2.165000 0.0 0.0
2.170000 0.0 0.0
2.175000 0.0 0.0
2.180000 0.0 0.0
2.185000 0.0 0.0
2.190000 0.0 0.0
2.195000 0.0 0.0
2.200000 0.0 0.0
2.205000 0.0 0.0
2.210000 0.0 0.0
2.215000 0.0 0.0
2.220000 0.0 0.0
2.225000 0.0 0.0
2.230000 0.0 0.0
2.235000 0.0 0.0
2.240000 0.0 0.0
2.245000 0.0 0.0
2.250000 0.0 0.0
2.255000 0.0 0.0
2.260000 0.0 0.0
2.265000 0.0 0.0
2.270000 0.0 0.0
2.275000 0.0 0.0
2.280000 0.0 0.0
2.285000 0.0 0.0
2.290000 0.0 0.0
2.295000 0.0 0.0
2.300000 0.0 0.0
2.305000 0.0 0.0
2.310000 0.0 0.0
2.315000 0.0 0.0
2.320000 0.0 0.0
2.325000 0.0 0.0
2.330000 0.0 0.0
2.335000 0.0 0.0
2.340000 0.0 0.0
2.345000 0.0 0.0
2.350000 0.0 0.0
2.355000 0.0 0.0
2.360000 0.0 0.0
2.365000 0.0 0.0
2.370000 0.0 0.0
2.375000 0.0 0.0
2.380000 0.0 0.0
2.385000 0.0 0.0
2.390000 0.0 0.0
2.395000 0.0 0.0
2.400000 0.0 0.0
2.405000 0.0 0.0
2.410000 0.0 0.0
2.415000 0.0 0.0
2.420000 0.0 0.0
2.425000 0.0 0.0
2.430000 0.0 0.0
2.435000 0.0 0.0
2.440000 0.0 0.0
2.445000 0.0 0.0
2.450000 0.0 0.0
2.455000 0.0 0.0
2.460000 0.0 0.0
2.465000 0.0 0.0
2.470000 0.0 0.0
2.475000 0.0 0.0
2.480000 0.0 0.0
2.485000 0.0 0.0
2.490000 0.0 0.0
2.495000 0.0 0.0
2.500000 0.0 0.0
2.505000 0.0 0.0
2.510000 0.0 0.0
2.515000 0.0 0.0
2.520000 0.0 0.0
2.525000 0.0 0.0
2.530000 0.0 0.0
2.535000 0.0 0.0
2.540000 0.0 0.0
2.545000 0.0 0.0
2.550000 0.0 0.0
2.555000 0.0 0.0
2.560000 0.0 0.0
2.565000 0.0 0.0
2.570000 0.0 0.0
2.575000 0.0 0.0
2.580000 0.0 0.0
2.585000 0.0 0.0
2.590000 0.0 0.0
2.595000 0.0 0.0
2.600000 0.0 0.0
2.605000 0.0 0.0
2.610000 0.0 0.0
2.615000 0.0 0.0
2.620000 0.0 0.0
2.625000 0.0 0.0
2.630000 0.0 0.0
2.635000 0.0 0.0
2.640000 0.0 0.0
2.645000 0.0 0.0
2.650000 0.0 0.0
2.655000 0.0 0.0
2.660000 0.0 0.0
2.665000 0.0 0.0
2.670000 0.0 0.0
2.675000 0.0 0.0
2.680000 0.0 0.0
2.685000 0.0 0.0
2.690000 0.0 0.0
2.695000 0.0 0.0
2.700000 0.0 0.0
2.705000 0.0 0.0
2.710000 0.0 0.0
2.715000 0.0 0.0
2.720000 0.0 0.0
2.725000 0.0 0.0
2.730000 0.0 0.0
2.735000 0.0 0.0
2.740000 0.0 0.0
2.745000 0.0 0.0
2.750000 0.0 0.0
2.755000 0.0 0.0
2.760000 0.0 0.0
2.765000 0.0 0.0
2.770000 0.0 0.0
2.775000 0.0 0.0
2.780000 0.0 0.0
2.785000 0.0 0.0
2.790000 0.0 0.0
2.795000 0.0 0.0
2.800000 0.0 0.0
2.805000 0.0 0.0
2.810000 0.0 0.0
2.815000 0.0 0.0
2.820000 0.0 0.0
2.825000 0.0 0.0
2.830000 0.0 0.0
2.835000 0.0 0.0
2.840000 0.0 0.0
2.845000 0.0 0.0
2.850000 0.0 0.0
2.855000 0.0 0.0
2.860000 0.0 0.0
[...]
      <PointData Scalars="Temperature">
        <DataArray type="Float32" Name="Temperature" format="ascii">
308.150000
306.978651
305.807666
304.637411
303.468249
302.300542
301.134652
299.970939
298.809761
297.651474
296.496431
295.344982
294.197475
293.054255
291.915660
290.782028
289.653689
288.530972
287.414199
286.303686
285.199744
284.102678
283.012785
281.930357
280.855676
279.789014
278.730635
277.680792
276.639725
275.607665
274.586056
273.666674
273.217509
273.010136
272.875858
272.771926
272.683801
272.605046
272.532312
272.463654
272.397862
272.334142
272.271952
272.210914
272.150756
272.091282
272.032349
271.973851
271.915709
271.857864
271.800273
271.742904
271.685732
271.628740
271.571914
271.515246
271.458729
271.402359
271.346132
271.290047
271.234103
271.178300
271.122639
271.067119
271.011743
270.956511
270.901425
270.846487
270.791698
270.737060
270.682575
270.628244
270.574071
270.520055
270.466200
270.412506
270.358977
270.305613
270.252417
270.199391
270.146535
270.093852
270.041344
269.989013
269.936860
269.884886
269.833094
269.781485
269.730061
269.678823
269.627774
269.576914
269.526245
269.475768
269.425486
269.375400
269.325510
269.275819
269.226328
269.177038
269.127951
269.079068
269.030390
268.981918
268.933655
268.885601
268.837757
268.790124
268.742704
268.695498
268.648507
268.601732
268.555175
268.508835
268.462714
268.416814
268.371135
268.325678
268.280444
268.235434
268.190649
268.146090
268.101757
268.057652
268.013774
267.970126
267.926707
267.883519
267.840561
267.797835
267.755342
267.713081
267.671054
267.629261
267.587702
267.546379
267.505291
267.464440
267.423825
267.383446
267.343306
267.303403
267.263738
267.224311
267.185123
267.146174
267.107464
267.068994
267.030764
266.992773
266.955022
266.917512
266.880242
266.843212
266.806423
266.769874
266.733566
266.697499
266.661672
266.626085
266.590739
266.555634
266.520769
266.486144
266.451759
266.417614
266.383709
266.350043
266.316617
266.283430
266.250481
266.217771
266.185300
266.153066
266.121070
266.089311
266.057789
266.026504
265.995455
265.964641
265.934063
265.903719
265.873610
265.843735
265.814093
265.784683
265.755506
265.726561
265.697846
265.669362
265.641108
265.613084
265.585288
265.557719
265.530378
265.503264
265.476376
265.449713
265.423274
265.397059
265.371067
265.345297
265.319749
265.294421
265.269314
265.244425
265.219754
265.195301
265.171064
265.147043
265.123236
265.099644
265.076264
265.053096
265.030140
265.007394
264.984856
264.962528
264.940406
264.918491
264.896782
264.875276
264.853974
264.832875
264.811977
264.791279
264.770781
264.750480
264.730378
264.710471
264.690759
264.671242
264.651918
264.632785
264.613843
264.595091
264.576528
264.558152
264.539963
264.521959
264.504139
264.486503
264.469048
264.451774
264.434680
264.417764
264.401026
264.384464
264.368077
264.351864
264.335824
264.319956
264.304258
264.288730
264.273369
264.258176
264.243148
264.228285
264.213586
264.199049
264.184673
264.170457
264.156400
264.142500
264.128757
264.115169
264.101735
264.088454
264.075325
264.062346
264.049517
264.036836
264.024301
264.011913
263.999669
263.987569
263.975611
263.963795
263.952118
263.940580
263.929180
263.917916
263.906787
263.895793
263.884932
263.874202
263.863603
263.853134
263.842793
263.832580
263.822492
263.812530
263.802691
263.792976
263.783381
263.773908
263.764553
263.755317
263.746198
263.737195
263.728307
263.719533
263.710871
263.702322
263.693882
263.685553
263.677331
263.669217
263.661210
263.653307
263.645509
263.637814
263.630221
263.622729
263.615337
263.608044
263.600848
263.593750
263.586748
263.579840
263.573027
263.566306
263.559677
263.553140
263.546692
263.540333
263.534062
263.527878
263.521781
263.515768
263.509840
263.503995
263.498232
263.492551
263.486950
263.481428
263.475986
263.470621
263.465333
263.460121
263.454984
263.449922
263.444933
263.440016
263.435171
263.430397
263.425693
263.421058
263.416491
263.411992
263.407559
263.403192
263.398890
263.394653
263.390479
263.386368
263.382319
263.378330
263.374403
263.370534
263.366725
263.362974
263.359280
263.355643
263.352062
263.348536
263.345065
263.341647
263.338282
263.334970
263.331710
263.328501
263.325342
263.322233
263.319173
263.316161
263.313197
263.310281
263.307410
263.304586
263.301807
263.299072
263.296382
263.293735
263.291130
263.288568
263.286048
263.283569
263.281130
263.278731
263.276372
263.274051
263.271769
263.269524
263.267317
263.265146
263.263011
263.260912
263.258848
263.256819
263.254824
263.252862
263.250934
263.249038
263.247174
263.245342
263.243542
263.241772
263.240032
263.238322
263.236642
263.234990
263.233368
263.231773
263.230206
263.228666
263.227153
263.225666
263.224205
263.222770
263.221361
263.219976
263.218615
263.217279
263.215966
263.214677
263.213411
263.212167
263.210946
263.209746
263.208568
263.207411
263.206275
263.205160
263.204065
263.202989
263.201934
263.200897
263.199880
263.198881
263.197900
263.196938
263.195993
263.195066
263.194155
263.193262
263.192385
263.191525
263.190681
263.189852
263.189039
263.188241
263.187458
263.186690
263.185937
263.185197
263.184472
263.183761
263.183063
263.182378
263.181707
263.181048
263.180402
263.179768
263.179147
263.178537
263.177939
263.177353
263.176779
263.176215
263.175662
263.175121
263.174589
263.174069
263.173558
263.173057
263.172567
263.172086
263.171614
263.171152
263.170699
263.170255
263.169820
263.169394
263.168976
263.168566
263.168165
263.167772
263.167386
263.167009
263.166639
263.166276
263.165921
263.165573
263.165233
263.164899
263.164572
263.164251
263.163938
263.163630
263.163329
263.163035
263.162746
263.162463
263.162186
263.161915
263.161650
263.161390
263.161135
263.160886
263.160642
263.160403
263.160170
263.159941
263.159717
263.159497
263.159282
263.159072
263.158867
263.158665
263.158468
263.158275
263.158087
263.157902
263.157721
263.157544
263.157371
263.157202
263.157036
263.156874
263.156716
263.156561
263.156409
263.156261
263.156115
263.155973
263.155834
263.155698
263.155566
263.155436
263.155308
263.155184
263.155063
263.154944
263.154827
263.154714
263.154603
263.154494
263.154388
263.154284
263.154182
263.154083
263.153986
263.153891
263.153798
263.153707
263.153619
263.153532
263.153448
263.153365
263.153284
263.153205
263.153128
263.153052
263.152979
263.152907
263.152836
263.152767
263.152700
263.152634
263.152570
263.152508
263.152446
263.152387
263.152328
263.152271
263.152215
263.152161
263.152108
263.152056
263.152005
263.151956
263.151907
263.151860
263.151814
263.151769
263.151725
263.151682
263.151640
263.151599
263.151559
263.151520
263.151482
263.151445
263.151409
263.151374
263.151339
263.151305
263.151272
263.151240
263.151209
263.151178
263.151148
263.151119
263.151091
263.151063
263.151036
263.151010
263.150984
263.150959
263.150934
263.150910
263.150887
263.150864
263.150842
263.150820
263.150799
263.150778
263.150758
263.150739
263.150720
263.150701
263.150683
263.150665
263.150648
263.150631
263.150614
263.150598
263.150583
263.150567
263.150553
263.150538
263.150524
263.150510
263.150497
263.150484
263.150471
263.150458
263.150446
263.150434
263.150423
263.150412
263.150401
263.150390
263.150380
263.150370
263.150360
263.150350
263.150341
263.150332
263.150323
263.150314
263.150306
263.150297
263.150289
263.150282
263.150274
263.150267
263.150259
263.150252
263.150246
263.150239
263.150232
263.150226
263.150220
263.150214
263.150208
263.150202
263.150197
263.150191
263.150186
263.150181
263.150176
263.150171
263.150167
263.150162
263.150158
263.150153
263.150149
263.150145
263.150141
263.150137
263.150133
263.150129
263.150126
263.150122
263.150119
263.150116
263.150112
263.150109
263.150106
263.150103
263.150100
263.150097
263.150095
263.150092
263.150089
263.150087
263.150084
263.150082
263.150080
263.150077
263.150075
263.150073
263.150071
263.150069
263.150067
263.150065
263.150063
263.150061
263.150060
263.150058
263.150056
263.150055
263.150053
263.150052
263.150050
263.150049
263.150047
263.150046
263.150044
263.150043
263.150042
263.150041
263.150039
263.150038
263.150037
263.150036
263.150035
263.150034
263.150033
263.150032
263.150031
263.150030
263.150029
263.150028
263.150027
263.150027
263.150026
263.150025
263.150024
263.150023
263.150023
263.150022
263.150021
263.150021
263.150020
263.150019
263.150019
263.150018
263.150018
263.150017
263.150016
263.150016
263.150015
263.150015
263.150014
263.150014
263.150013
263.150013
263.150012
263.150012
263.150012
263.150011
263.150011
263.150010
263.150010
263.150010
263.150009
263.150009
263.150008
263.150008
263.150008
263.150007
263.150007
263.150007
263.150006
263.150006
263.150006
263.150006
263.150005
263.150005
263.150005
263.150004
263.150004
263.150004
263.150004
263.150003
263.150003
263.150003
263.150003
263.150002
263.150002
263.150002
263.150001
263.150001
263.150001
263.150001
263.150000
263.150000
263.150000
        </DataArray>
      </PointData>
      <CellData>
      </CellData>
    </Piece>
  </UnstructuredGrid>
</VTKFile>
