<?xml version="1.0"?>
<VTKFile type="UnstructuredGrid" version="0.1" byte_order="LittleEndian">
  <UnstructuredGrid>
    <Piece NumberOfPoints="801" NumberOfCells="800">
      <Points>
        <DataArray type="Float32" NumberOfComponents="3" format="ascii">
0.000000 0.0 0.0
0.005000 0.0 0.0
0.010000 0.0 0.0
0.015000 0.0 0.0
0.020000 0.0 0.0
0.025000 0.0 0.0
0.030000 0.0 0.0
0.035000 0.0 0.0
0.040000 0.0 0.0
0.045000 0.0 0.0
0.050000 0.0 0.0
0.055000 0.0 0.0
0.060000 0.0 0.0
0.065000 0.0 0.0
0.070000 0.0 0.0
0.075000 0.0 0.0
0.080000 0.0 0.0
0.085000 0.0 0.0
0.090000 0.0 0.0
0.095000 0.0 0.0
0.100000 0.0 0.0
0.105000 0.0 0.0
0.110000 0.0 0.0
0.115000 0.0 0.0
0.120000 0.0 0.0
0.125000 0.0 0.0
0.130000 0.0 0.0
0.135000 0.0 0.0
0.140000 0.0 0.0
0.145000 0.0 0.0
0.150000 0.0 0.0
0.155000 0.0 0.0
0.160000 0.0 0.0
0.165000 0.0 0.0
0.170000 0.0 0.0
0.175000 0.0 0.0
0.180000 0.0 0.0
0.185000 0.0 0.0
0.190000 0.0 0.0
0.195000 0.0 0.0
0.200000 0.0 0.0
0.205000 0.0 0.0
0.210000 0.0 0.0
0.215000 0.0 0.0
0.220000 0.0 0.0
0.225000 0.0 0.0
0.230000 0.0 0.0
0.235000 0.0 0.0
0.240000 0.0 0.0
0.245000 0.0 0.0
0.250000 0.0 0.0
0.255000 0.0 0.0
0.260000 0.0 0.0
0.265000 0.0 0.0
0.270000 0.0 0.0
0.275000 0.0 0.0
0.280000 0.0 0.0
0.285000 0.0 0.0
0.290000 0.0 0.0
0.295000 0.0 0.0
0.300000 0.0 0.0
0.305000 0.0 0.0
0.310000 0.0 0.0
0.315000 0.0 0.0
0.320000 0.0 0.0
0.325000 0.0 0.0
0.330000 0.0 0.0
0.335000 0.0 0.0
0.340000 0.0 0.0
0.345000 0.0 0.0
0.350000 0.0 0.0
0.355000 0.0 0.0
0.360000 0.0 0.0
0.365000 0.0 0.0
0.370000 0.0 0.0
0.375000 0.0 0.0
0.380000 0.0 0.0
0.385000 0.0 0.0
0.390000 0.0 0.0
0.395000 0.0 0.0
0.400000 0.0 0.0
0.405000 0.0 0.0
0.410000 0.0 0.0
0.415000 0.0 0.0
0.420000 0.0 0.0
0.425000 0.0 0.0
0.430000 0.0 0.0
0.435000 0.0 0.0
0.440000 0.0 0.0
0.445000 0.0 0.0
0.450000 0.0 0.0
0.455000 0.0 0.0
0.460000 0.0 0.0
0.465000 0.0 0.0
0.470000 0.0 0.0
0.475000 0.0 0.0
0.480000 0.0 0.0
0.485000 0.0 0.0
0.490000 0.0 0.0
0.495000 0.0 0.0
0.500000 0.0 0.0
0.505000 0.0 0.0
0.510000 0.0 0.0
0.515000 0.0 0.0
0.520000 0.0 0.0
0.525000 0.0 0.0
0.530000 0.0 0.0
0.535000 0.0 0.0
0.540000 0.0 0.0
0.545000 0.0 0.0
0.550000 0.0 0.0
0.555000 0.0 0.0
0.560000 0.0 0.0
0.565000 0.0 0.0
0.570000 0.0 0.0
0.575000 0.0 0.0
0.580000 0.0 0.0
0.585000 0.0 0.0
0.590000 0.0 0.0
0.595000 0.0 0.0
0.600000 0.0 0.0
0.605000 0.0 0.0
0.610000 0.0 0.0
0.615000 0.0 0.0
0.620000 0.0 0.0
0.625000 0.0 0.0
0.630000 0.0 0.0
0.635000 0.0 0.0
0.640000 0.0 0.0
0.645000 0.0 0.0
0.650000 0.0 0.0
0.655000 0.0 0.0
0.660000 0.0 0.0
0.665000 0.0 0.0
0.670000 0.0 0.0
0.675000 0.0 0.0
0.680000 0.0 0.0
0.685000 0.0 0.0
0.690000 0.0 0.0
0.695000 0.0 0.0
0.700000 0.0 0.0
0.705000 0.0 0.0
0.710000 0.0 0.0
0.715000 0.0 0.0
0.720000 0.0 0.0
0.725000 0.0 0.0
0.730000 0.0 0.0
0.735000 0.0 0.0
0.740000 0.0 0.0
0.745000 0.0 0.0
0.750000 0.0 0.0
0.755000 0.0 0.0
0.760000 0.0 0.0
0.765000 0.0 0.0
0.770000 0.0 0.0
0.775000 0.0 0.0
0.780000 0.0 0.0
0.785000 0.0 0.0
0.790000 0.0 0.0
0.795000 0.0 0.0
0.800000 0.0 0.0
0.805000 0.0 0.0
0.810000 0.0 0.0
0.815000 0.0 0.0
0.820000 0.0 0.0
0.825000 0.0 0.0
0.830000 0.0 0.0
0.835000 0.0 0.0
0.840000 0.0 0.0
0.845000 0.0 0.0
0.850000 0.0 0.0
0.855000 0.0 0.0
0.860000 0.0 0.0
0.865000 0.0 0.0
0.870000 0.0 0.0
0.875000 0.0 0.0
0.880000 0.0 0.0
0.885000 0.0 0.0
0.890000 0.0 0.0
0.895000 0.0 0.0
0.900000 0.0 0.0
0.905000 0.0 0.0
0.910000 0.0 0.0
0.915000 0.0 0.0
0.920000 0.0 0.0
0.925000 0.0 0.0
0.930000 0.0 0.0
0.935000 0.0 0.0
0.940000 0.0 0.0
0.945000 0.0 0.0
0.950000 0.0 0.0
0.955000 0.0 0.0
0.960000 0.0 0.0
0.965000 0.0 0.0
0.970000 0.0 0.0
0.975000 0.0 0.0
0.980000 0.0 0.0
0.985000 0.0 0.0
0.990000 0.0 0.0
0.995000 0.0 0.0
1.000000 0.0 0.0
1.005000 0.0 0.0
1.010000 0.0 0.0
1.015000 0.0 0.0
1.020000 0.0 0.0
1.025000 0.0 0.0
1.030000 0.0 0.0
1.035000 0.0 0.0
1.040000 0.0 0.0
1.045000 0.0 0.0
1.050000 0.0 0.0
1.055000 0.0 0.0
1.060000 0.0 0.0
1.065000 0.0 0.0
1.070000 0.0 0.0
1.075000 0.0 0.0
1.080000 0.0 0.0
1.085000 0.0 0.0
1.090000 0.0 0.0
1.095000 0.0 0.0
1.100000 0.0 0.0
1.105000 0.0 0.0
1.110000 0.0 0.0
1.115000 0.0 0.0
1.120000 0.0 0.0
1.125000 0.0 0.0
1.130000 0.0 0.0
1.135000 0.0 0.0
1.140000 0.0 0.0
1.145000 0.0 0.0
1.150000 0.0 0.0
1.155000 0.0 0.0
1.160000 0.0 0.0
1.165000 0.0 0.0
1.170000 0.0 0.0
1.175000 0.0 0.0
1.180000 0.0 0.0
1.185000 0.0 0.0
1.190000 0.0 0.0
1.195000 0.0 0.0
1.200000 0.0 0.0
1.205000 0.0 0.0
1.210000 0.0 0.0
1.215000 0.0 0.0
1.220000 0.0 0.0
1.225000 0.0 0.0
1.230000 0.0 0.0
1.235000 0.0 0.0
1.240000 0.0 0.0
1.245000 0.0 0.0
1.250000 0.0 0.0
1.255000 0.0 0.0
1.260000 0.0 0.0
1.265000 0.0 0.0
1.270000 0.0 0.0
1.275000 0.0 0.0
1.280000 0.0 0.0
1.285000 0.0 0.0
1.290000 0.0 0.0
1.295000 0.0 0.0
1.300000 0.0 0.0
1.305000 0.0 0.0
1.310000 0.0 0.0
1.315000 0.0 0.0
1.320000 0.0 0.0
1.325000 0.0 0.0
1.330000 0.0 0.0
1.335000 0.0 0.0
1.340000 0.0 0.0
1.345000 0.0 0.0
1.350000 0.0 0.0
1.355000 0.0 0.0
1.360000 0.0 0.0
1.365000 0.0 0.0
1.370000 0.0 0.0
1.375000 0.0 0.0
1.380000 0.0 0.0
1.385000 0.0 0.0
1.390000 0.0 0.0
1.395000 0.0 0.0
1.400000 0.0 0.0
1.405000 0.0 0.0
1.410000 0.0 0.0
1.415000 0.0 0.0
1.420000 0.0 0.0
1.425000 0.0 0.0
1.430000 0.0 0.0
1.435000 0.0 0.0
1.440000 0.0 0.0
1.445000 0.0 0.0
1.450000 0.0 0.0
1.455000 0.0 0.0
1.460000 0.0 0.0
1.465000 0.0 0.0
1.470000 0.0 0.0
1.475000 0.0 0.0
1.480000 0.0 0.0
1.485000 0.0 0.0
1.490000 0.0 0.0
1.495000 0.0 0.0
1.500000 0.0 0.0
1.505000 0.0 0.0
1.510000 0.0 0.0
1.515000 0.0 0.0
1.520000 0.0 0.0
1.525000 0.0 0.0
1.530000 0.0 0.0
1.535000 0.0 0.0
1.540000 0.0 0.0
1.545000 0.0 0.0
1.550000 0.0 0.0
1.555000 0.0 0.0
1.560000 0.0 0.0
1.565000 0.0 0.0
1.570000 0.0 0.0
1.575000 0.0 0.0
1.580000 0.0 0.0
1.585000 0.0 0.0
1.590000 0.0 0.0
1.595000 0.0 0.0
1.600000 0.0 0.0
1.605000 0.0 0.0
1.610000 0.0 0.0
1.615000 0.0 0.0
1.620000 0.0 0.0
1.625000 0.0 0.0
1.630000 0.0 0.0
1.635000 0.0 0.0
1.640000 0.0 0.0
1.645000 0.0 0.0
1.650000 0.0 0.0
1.655000 0.0 0.0
1.660000 0.0 0.0
1.665000 0.0 0.0
1.670000 0.0 0.0
1.675000 0.0 0.0
1.680000 0.0 0.0
1.685000 0.0 0.0
1.690000 0.0 0.0
1.695000 0.0 0.0
1.700000 0.0 0.0
1.705000 0.0 0.0
1.710000 0.0 0.0
1.715000 0.0 0.0
1.720000 0.0 0.0
1.725000 0.0 0.0
1.730000 0.0 0.0
1.735000 0.0 0.0
1.740000 0.0 0.0
1.745000 0.0 0.0
1.750000 0.0 0.0
1.755000 0.0 0.0
1.760000 0.0 0.0
1.765000 0.0 0.0
1.770000 0.0 0.0
1.775000 0.0 0.0
1.780000 0.0 0.0
1.785000 0.0 0.0
1.790000 0.0 0.0
1.795000 0.0 0.0
1.800000 0.0 0.0
1.805000 0.0 0.0
1.810000 0.0 0.0
1.815000 0.0 0.0
1.820000 0.0 0.0
1.825000 0.0 0.0
1.830000 0.0 0.0
1.835000 0.0 0.0
1.840000 0.0 0.0
1.845000 0.0 0.0
1.850000 0.0 0.0
1.855000 0.0 0.0
1.860000 0.0 0.0
1.865000 0.0 0.0
1.870000 0.0 0.0
1.875000 0.0 0.0
1.880000 0.0 0.0
1.885000 0.0 0.0
1.890000 0.0 0.0
1.895000 0.0 0.0
1.900000 0.0 0.0
1.905000 0.0 0.0
1.910000 0.0 0.0
1.915000 0.0 0.0
1.920000 0.0 0.0
1.925000 0.0 0.0
1.930000 0.0 0.0
1.935000 0.0 0.0
1.940000 0.0 0.0
1.945000 0.0 0.0
1.950000 0.0 0.0
1.955000 0.0 0.0
1.960000 0.0 0.0
1.965000 0.0 0.0
1.970000 0.0 0.0
1.975000 0.0 0.0
1.980000 0.0 0.0
1.985000 0.0 0.0
1.990000 0.0 0.0
1.995000 0.0 0.0
2.000000 0.0 0.0
2.005000 0.0 0.0
2.010000 0.0 0.0
2.015000 0.0 0.0
2.020000 0.0 0.0
2.025000 0.0 0.0
2.030000 0.0 0.0
2.035000 0.0 0.0
2.040000 0.0 0.0
2.045000 0.0 0.0
2.050000 0.0 0.0
2.055000 0.0 0.0
2.060000 0.0 0.0
2.065000 0.0 0.0
2.070000 0.0 0.0
2.075000 0.0 0.0
2.080000 0.0 0.0
2.085000 0.0 0.0
2.090000 0.0 0.0
2.095000 0.0 0.0
2.100000 0.0 0.0
2.105000 0.0 0.0
2.110000 0.0 0.0
2.115000 0.0 0.0
2.120000 0.0 0.0
2.125000 0.0 0.0
2.130000 0.0 0.0
2.135000 0.0 0.0
2.140000 0.0 0.0
2.145000 0.0 0.0
2.150000 0.0 0.0
2.155000 0.0 0.0
2.160000 0.0 0.0
2.165000 0.0 0.0
2.170000 0.0 0.0
2.175000 0.0 0.0
2.180000 0.0 0.0
2.185000 0.0 0.0
2.190000 0.0 0.0
2.195000 0.0 0.0
2.200000 0.0 0.0
2.205000 0.0 0.0
2.210000 0.0 0.0
2.215000 0.0 0.0
2.220000 0.0 0.0
2.225000 0.0 0.0
2.230000 0.0 0.0
2.235000 0.0 0.0
2.240000 0.0 0.0
2.245000 0.0 0.0
2.250000 0.0 0.0
2.255000 0.0 0.0
2.260000 0.0 0.0
2.265000 0.0 0.0
2.270000 0.0 0.0
2.275000 0.0 0.0
2.280000 0.0 0.0
2.285000 0.0 0.0
2.290000 0.0 0.0
2.295000 0.0 0.0
2.300000 0.0 0.0
2.305000 0.0 0.0
2.310000 0.0 0.0
2.315000 0.0 0.0
2.320000 0.0 0.0
2.325000 0.0 0.0
2.330000 0.0 0.0
2.335000 0.0 0.0
2.340000 0.0 0.0
2.345000 0.0 0.0
2.350000 0.0 0.0
2.355000 0.0 0.0
2.360000 0.0 0.0
2.365000 0.0 0.0
2.370000 0.0 0.0
2.375000 0.0 0.0
2.380000 0.0 0.0
2.385000 0.0 0.0
2.390000 0.0 0.0
2.395000 0.0 0.0
2.400000 0.0 0.0
2.405000 0.0 0.0
2.410000 0.0 0.0
2.415000 0.0 0.0
2.420000 0.0 0.0
2.425000 0.0 0.0
2.430000 0.0 0.0
2.435000 0.0 0.0
2.440000 0.0 0.0
2.445000 0.0 0.0
2.450000 0.0 0.0
2.455000 0.0 0.0
2.460000 0.0 0.0
2.465000 0.0 0.0
2.470000 0.0 0.0
2.475000 0.0 0.0
2.480000 0.0 0.0
2.485000 0.0 0.0
2.490000 0.0 0.0
2.495000 0.0 0.0
2.500000 0.0 0.0
2.505000 0.0 0.0
2.510000 0.0 0.0
2.515000 0.0 0.0
2.520000 0.0 0.0
2.525000 0.0 0.0
2.530000 0.0 0.0
2.535000 0.0 0.0
2.540000 0.0 0.0
2.545000 0.0 0.0
2.550000 0.0 0.0
2.555000 0.0 0.0
2.560000 0.0 0.0
2.565000 0.0 0.0
2.570000 0.0 0.0
2.575000 0.0 0.0
2.580000 0.0 0.0
2.585000 0.0 0.0
2.590000 0.0 0.0
2.595000 0.0 0.0
2.600000 0.0 0.0
2.605000 0.0 0.0
2.610000 0.0 0.0
2.615000 0.0 0.0
2.620000 0.0 0.0
2.625000 0.0 0.0
2.630000 0.0 0.0
2.635000 0.0 0.0
2.640000 0.0 0.0
2.645000 0.0 0.0
2.650000 0.0 0.0
2.655000 0.0 0.0
2.660000 0.0 0.0
2.665000 0.0 0.0
2.670000 0.0 0.0
2.675000 0.0 0.0
2.680000 0.0 0.0
2.685000 0.0 0.0
2.690000 0.0 0.0
2.695000 0.0 0.0
2.700000 0.0 0.0
2.705000 0.0 0.0
2.710000 0.0 0.0
2.715000 0.0 0.0
2.720000 0.0 0.0
2.725000 0.0 0.0
2.730000 0.0 0.0
2.735000 0.0 0.0
2.740000 0.0 0.0
2.745000 0.0 0.0
2.750000 0.0 0.0
2.755000 0.0 0.0
2.760000 0.0 0.0
2.765000 0.0 0.0
2.770000 0.0 0.0
2.775000 0.0 0.0
2.780000 0.0 0.0
2.785000 0.0 0.0
2.790000 0.0 0.0
2.795000 0.0 0.0
2.800000 0.0 0.0
2.805000 0.0 0.0
2.810000 0.0 0.0
2.815000 0.0 0.0
2.820000 0.0 0.0
2.825000 0.0 0.0
2.830000 0.0 0.0
2.835000 0.0 0.0
2.840000 0.0 0.0
2.845000 0.0 0.0
2.850000 0.0 0.0
2.855000 0.0 0.0
2.860000 0.0 0.0
[...]
      <PointData Scalars="Temperature">
        <DataArray type="Float32" Name="Temperature" format="ascii">
308.150000
307.237477
306.325130
305.413134
304.501663
303.590894
302.681001
301.772158
300.864537
299.958313
299.053656
298.150738
297.249730
296.350800
295.454116
294.559844
293.668151
292.779200
291.893153
291.010172
290.130415
289.254041
288.381205
287.512060
286.646759
285.785452
284.928286
284.075408
283.226960
282.383084
281.543919
280.709602
279.880265
279.056040
278.237054
277.423434
276.615299
275.812769
275.016059
274.230391
273.565277
273.223810
273.046046
272.927263
272.835391
272.758308
272.690353
272.628469
272.570839
272.516303
272.464080
272.413622
272.364536
272.316531
272.269388
272.222939
272.177055
272.131635
272.086599
272.041885
271.997443
271.953234
271.909226
271.865394
271.821716
271.778178
271.734767
271.691472
271.648284
271.605198
271.562208
271.519311
271.476503
271.433782
271.391147
271.348596
271.306128
271.263743
271.221440
271.179220
271.137082
271.095028
271.053056
271.011169
270.969365
270.927647
270.886014
270.844467
270.803007
270.761635
270.720351
270.679156
270.638051
270.597036
270.556113
270.515283
270.474545
270.433901
270.393352
270.352898
270.312540
270.272279
270.232115
270.192050
270.152084
270.112218
270.072452
270.032788
269.993226
269.953767
269.914411
269.875160
269.836013
269.796972
269.758037
269.719210
269.680489
269.641878
269.603375
269.564982
269.526699
269.488527
269.450467
269.412519
269.374683
269.336962
269.299354
269.261860
269.224482
269.187220
269.150074
269.113044
269.076133
269.039339
269.002664
268.966107
268.929671
268.893354
268.857159
268.821084
268.785131
268.749300
268.713592
268.678006
268.642544
268.607207
268.571993
268.536905
268.501941
268.467104
268.432393
268.397808
268.363350
268.329019
268.294816
268.260742
268.226795
268.192978
268.159290
268.125731
268.092302
268.059004
268.025836
267.992798
267.959892
267.927118
267.894475
267.861964
267.829585
267.797339
267.765226
267.733246
267.701399
267.669686
267.638106
267.606661
267.575350
267.544173
267.513131
267.482224
267.451451
267.420814
267.390313
267.359946
267.329716
267.299621
267.269662
267.239840
267.210153
267.180603
267.151190
267.121912
267.092772
267.063768
267.034901
267.006171
266.977578
266.949122
266.920803
266.892621
266.864576
266.836669
266.808898
266.781265
266.753769
266.726410
266.699189
266.672104
266.645157
266.618347
266.591674
266.565138
266.538739
266.512478
266.486353
266.460365
266.434514
266.408799
266.383221
266.357780
266.332475
266.307307
266.282274
266.257378
266.232618
266.207994
266.183505
266.159152
266.134935
266.110853
266.086905
266.063093
266.039416
266.015873
265.992465
265.969191
265.946051
265.923045
265.900173
265.877434
265.854828
265.832355
265.810016
265.787808
265.765733
265.743790
265.721979
265.700300
265.678751
265.657334
265.636048
265.614892
265.593867
265.572971
265.552205
265.531569
265.511061
265.490683
265.470432
265.450310
265.430316
265.410450
265.390710
265.371098
265.351612
265.332253
265.313019
265.293911
265.274928
265.256069
265.237336
265.218726
265.200241
265.181878
265.163639
265.145522
265.127528
265.109655
265.091905
265.074275
265.056766
265.039377
265.022108
265.004959
264.987929
264.971017
264.954224
264.937549
264.920991
264.904551
264.888227
264.872019
264.855927
264.839950
264.824089
264.808341
264.792708
264.777189
264.761782
264.746489
264.731307
264.716238
264.701279
264.686432
264.671695
264.657068
264.642551
264.628143
264.613843
264.599652
264.585568
264.571591
264.557721
264.543957
264.530299
264.516747
264.503299
264.489955
264.476716
264.463579
264.450546
264.437615
264.424786
264.412058
264.399431
264.386905
264.374479
264.362152
264.349924
264.337794
264.325763
264.313829
264.301991
264.290251
264.278606
264.267057
264.255603
264.244243
264.232977
264.221805
264.210725
264.199739
264.188844
264.178040
264.167328
264.156706
264.146173
264.135731
264.125377
264.115112
264.104934
264.094844
264.084841
264.074924
264.065093
264.055348
264.045688
264.036111
264.026619
264.017210
264.007884
263.998641
263.989479
263.980399
263.971399
263.962480
263.953641
263.944881
263.936200
263.927597
263.919072
263.910625
263.902254
263.893960
263.885742
263.877599
263.869531
263.861537
263.853618
263.845771
263.837998
263.830297
263.822668
263.815110
263.807624
263.800207
263.792861
263.785585
263.778377
263.771238
263.764167
263.757164
263.750228
263.743358
263.736555
263.729817
263.723145
263.716537
263.709993
263.703514
263.697097
263.690744
263.684453
263.678224
263.672057
263.665950
263.659904
263.653919
263.647992
263.642126
263.636318
263.630568
263.624876
263.619242
263.613664
263.608143
263.602678
263.597269
263.591915
263.586616
263.581372
263.576181
263.571043
263.565959
263.560928
263.555948
263.551021
263.546144
263.541319
263.536544
263.531820
263.527145
263.522519
263.517943
263.513414
263.508934
263.504502
263.500117
263.495778
263.491486
263.487241
263.483041
263.478886
263.474776
263.470711
263.466689
263.462712
263.458778
263.454887
263.451038
263.447232
263.443468
263.439745
263.436063
263.432422
263.428822
263.425261
263.421740
263.418258
263.414816
263.411412
263.408046
263.404718
263.401428
263.398175
263.394958
263.391779
263.388635
263.385527
263.382455
263.379418
263.376416
263.373448
263.370515
263.367615
263.364749
263.361917
263.359117
263.356349
263.353614
263.350911
263.348240
263.345600
263.342991
263.340412
263.337865
263.335347
263.332859
263.330401
263.327971
263.325571
263.323200
263.320857
263.318542
263.316255
263.313995
263.311763
263.309557
263.307379
263.305226
263.303100
263.301000
263.298926
263.296877
263.294853
263.292853
263.290879
263.288928
263.287002
263.285100
263.283221
263.281365
263.279533
263.277724
263.275937
263.274172
263.272429
263.270709
263.269010
263.267332
263.265676
263.264040
263.262426
263.260831
263.259258
263.257704
263.256170
263.254655
263.253160
263.251684
263.250227
263.248789
263.247370
263.245969
263.244586
263.243220
263.241873
263.240543
263.239231
263.237936
263.236657
263.235396
263.234151
263.232922
263.231709
263.230513
263.229332
263.228167
263.227018
263.225884
263.224765
263.223661
263.222571
263.221496
263.220436
263.219390
263.218358
263.217340
263.216335
263.215344
263.214367
263.213403
263.212452
263.211514
263.210588
263.209676
263.208776
263.207888
263.207012
263.206149
263.205297
263.204457
263.203629
263.202812
263.202007
263.201212
263.200429
263.199657
263.198895
263.198144
263.197404
263.196674
263.195954
263.195245
263.194545
263.193855
263.193175
263.192505
263.191844
263.191193
263.190550
263.189917
263.189293
263.188678
263.188072
263.187475
263.186886
263.186305
263.185733
263.185169
263.184613
263.184066
263.183526
263.182994
263.182470
263.181953
263.181444
263.180943
263.180448
263.179961
263.179482
263.179009
263.178543
263.178084
263.177632
263.177186
263.176747
263.176315
263.175889
263.175469
263.175056
263.174649
263.174247
263.173852
263.173463
263.173080
263.172702
263.172330
263.171963
263.171603
263.171247
263.170897
263.170552
263.170213
263.169878
263.169549
263.169225
263.168905
263.168591
263.168281
263.167976
263.167676
263.167380
263.167089
263.166803
263.166520
263.166243
263.165969
263.165700
263.165434
263.165173
263.164916
263.164663
263.164414
263.164169
263.163927
263.163689
263.163455
263.163225
263.162998
263.162775
263.162556
263.162339
263.162126
263.161917
263.161711
263.161508
263.161308
263.161111
263.160918
263.160727
263.160540
263.160355
263.160174
263.159995
263.159819
263.159646
263.159476
263.159308
263.159143
263.158981
263.158821
263.158664
263.158509
263.158357
263.158207
263.158060
263.157915
263.157772
263.157632
263.157493
263.157357
263.157223
263.157092
263.156962
263.156834
263.156709
263.156585
263.156464
263.156344
263.156226
263.156111
263.155996
263.155884
263.155774
263.155665
263.155558
263.155453
263.155349
263.155247
263.155147
263.155048
263.154951
263.154856
263.154761
263.154669
263.154577
263.154488
263.154399
263.154312
263.154226
263.154142
263.154059
263.153977
263.153897
263.153817
263.153739
263.153662
263.153587
263.153512
263.153439
263.153366
263.153295
263.153225
263.153155
263.153087
263.153020
263.152954
263.152888
263.152824
263.152761
263.152698
263.152636
263.152576
263.152516
263.152457
263.152398
263.152341
263.152284
263.152228
263.152173
263.152118
263.152064
263.152011
263.151958
263.151907
263.151855
263.151805
263.151755
263.151705
263.151656
263.151608
263.151560
263.151513
263.151466
263.151420
263.151374
263.151329
263.151284
263.151240
263.151196
263.151152
263.151109
263.151066
263.151023
263.150981
263.150939
263.150898
263.150857
263.150816
263.150775
263.150735
263.150695
263.150655
263.150615
263.150576
263.150536
263.150497
263.150458
263.150420
263.150381
263.150343
263.150304
263.150266
263.150228
263.150190
263.150152
263.150114
263.150076
263.150038
263.150000
        </DataArray>
      </PointData>
      <CellData>
      </CellData>
    </Piece>
  </UnstructuredGrid>
</VTKFile>
