<?xml version="1.0"?>
<VTKFile type="UnstructuredGrid" version="0.1" byte_order="LittleEndian">
  <UnstructuredGrid>
    <Piece NumberOfPoints="801" NumberOfCells="800">
      <Points>
        <DataArray type="Float32" NumberOfComponents="3" format="ascii">
0.000000 0.0 0.0
0.005000 0.0 0.0
0.010000 0.0 0.0
0.015000 0.0 0.0
0.020000 0.0 0.0
0.025000 0.0 0.0
0.030000 0.0 0.0
0.035000 0.0 0.0
0.040000 0.0 0.0
0.045000 0.0 0.0
0.050000 0.0 0.0
0.055000 0.0 0.0
0.060000 0.0 0.0
0.065000 0.0 0.0
0.070000 0.0 0.0
0.075000 0.0 0.0
0.080000 0.0 0.0
0.085000 0.0 0.0
0.090000 0.0 0.0
0.095000 0.0 0.0
0.100000 0.0 0.0
0.105000 0.0 0.0
0.110000 0.0 0.0
0.115000 0.0 0.0
0.120000 0.0 0.0
0.125000 0.0 0.0
0.130000 0.0 0.0
0.135000 0.0 0.0
0.140000 0.0 0.0
0.145000 0.0 0.0
0.150000 0.0 0.0
0.155000 0.0 0.0
0.160000 0.0 0.0
0.165000 0.0 0.0
0.170000 0.0 0.0
0.175000 0.0 0.0
0.180000 0.0 0.0
0.185000 0.0 0.0
0.190000 0.0 0.0
0.195000 0.0 0.0
0.200000 0.0 0.0
0.205000 0.0 0.0
0.210000 0.0 0.0
0.215000 0.0 0.0
0.220000 0.0 0.0
0.225000 0.0 0.0
0.230000 0.0 0.0
0.235000 0.0 0.0
0.240000 0.0 0.0
0.245000 0.0 0.0
0.250000 0.0 0.0
0.255000 0.0 0.0
0.260000 0.0 0.0
0.265000 0.0 0.0
0.270000 0.0 0.0
0.275000 0.0 0.0
0.280000 0.0 0.0
0.285000 0.0 0.0
0.290000 0.0 0.0
0.295000 0.0 0.0
0.300000 0.0 0.0
0.305000 0.0 0.0
0.310000 0.0 0.0
0.315000 0.0 0.0
0.320000 0.0 0.0
0.325000 0.0 0.0
0.330000 0.0 0.0
0.335000 0.0 0.0
0.340000 0.0 0.0
0.345000 0.0 0.0
0.350000 0.0 0.0
0.355000 0.0 0.0
0.360000 0.0 0.0
0.365000 0.0 0.0
0.370000 0.0 0.0
0.375000 0.0 0.0
0.380000 0.0 0.0
0.385000 0.0 0.0
0.390000 0.0 0.0
0.395000 0.0 0.0
0.400000 0.0 0.0
0.405000 0.0 0.0
0.410000 0.0 0.0
0.415000 0.0 0.0
0.420000 0.0 0.0
0.425000 0.0 0.0
0.430000 0.0 0.0
0.435000 0.0 0.0
0.440000 0.0 0.0
0.445000 0.0 0.0
0.450000 0.0 0.0
0.455000 0.0 0.0
0.460000 0.0 0.0
0.465000 0.0 0.0
0.470000 0.0 0.0
0.475000 0.0 0.0
0.480000 0.0 0.0
0.485000 0.0 0.0
0.490000 0.0 0.0
0.495000 0.0 0.0
0.500000 0.0 0.0
0.505000 0.0 0.0
0.510000 0.0 0.0
0.515000 0.0 0.0
0.520000 0.0 0.0
0.525000 0.0 0.0
0.530000 0.0 0.0
0.535000 0.0 0.0
0.540000 0.0 0.0
0.545000 0.0 0.0
0.550000 0.0 0.0
0.555000 0.0 0.0
0.560000 0.0 0.0
0.565000 0.0 0.0
0.570000 0.0 0.0
0.575000 0.0 0.0
0.580000 0.0 0.0
0.585000 0.0 0.0
0.590000 0.0 0.0
0.595000 0.0 0.0
0.600000 0.0 0.0
0.605000 0.0 0.0
0.610000 0.0 0.0
0.615000 0.0 0.0
0.620000 0.0 0.0
0.625000 0.0 0.0
0.630000 0.0 0.0
0.635000 0.0 0.0
0.640000 0.0 0.0
0.645000 0.0 0.0
0.650000 0.0 0.0
0.655000 0.0 0.0
0.660000 0.0 0.0
0.665000 0.0 0.0
0.670000 0.0 0.0
0.675000 0.0 0.0
0.680000 0.0 0.0
0.685000 0.0 0.0
0.690000 0.0 0.0
0.695000 0.0 0.0
0.700000 0.0 0.0
0.705000 0.0 0.0
0.710000 0.0 0.0
0.715000 0.0 0.0
0.720000 0.0 0.0
0.725000 0.0 0.0
0.730000 0.0 0.0
0.735000 0.0 0.0
0.740000 0.0 0.0
0.745000 0.0 0.0
0.750000 0.0 0.0
0.755000 0.0 0.0
0.760000 0.0 0.0
0.765000 0.0 0.0
0.770000 0.0 0.0
0.775000 0.0 0.0
0.780000 0.0 0.0
0.785000 0.0 0.0
0.790000 0.0 0.0
0.795000 0.0 0.0
0.800000 0.0 0.0
0.805000 0.0 0.0
0.810000 0.0 0.0
0.815000 0.0 0.0
0.820000 0.0 0.0
0.825000 0.0 0.0
0.830000 0.0 0.0
0.835000 0.0 0.0
0.840000 0.0 0.0
0.845000 0.0 0.0
0.850000 0.0 0.0
0.855000 0.0 0.0
0.860000 0.0 0.0
0.865000 0.0 0.0
0.870000 0.0 0.0
0.875000 0.0 0.0
0.880000 0.0 0.0
0.885000 0.0 0.0
0.890000 0.0 0.0
0.895000 0.0 0.0
0.900000 0.0 0.0
0.905000 0.0 0.0
0.910000 0.0 0.0
0.915000 0.0 0.0
0.920000 0.0 0.0
0.925000 0.0 0.0
0.930000 0.0 0.0
0.935000 0.0 0.0
0.940000 0.0 0.0
0.945000 0.0 0.0
0.950000 0.0 0.0
0.955000 0.0 0.0
0.960000 0.0 0.0
0.965000 0.0 0.0
0.970000 0.0 0.0
0.975000 0.0 0.0
0.980000 0.0 0.0
0.985000 0.0 0.0
0.990000 0.0 0.0
0.995000 0.0 0.0
1.000000 0.0 0.0
1.005000 0.0 0.0
1.010000 0.0 0.0
1.015000 0.0 0.0
1.020000 0.0 0.0
1.025000 0.0 0.0
1.030000 0.0 0.0
1.035000 0.0 0.0
1.040000 0.0 0.0
1.045000 0.0 0.0
1.050000 0.0 0.0
1.055000 0.0 0.0
1.060000 0.0 0.0
1.065000 0.0 0.0
1.070000 0.0 0.0
1.075000 0.0 0.0
1.080000 0.0 0.0
1.085000 0.0 0.0
1.090000 0.0 0.0
1.095000 0.0 0.0
1.100000 0.0 0.0
1.105000 0.0 0.0
1.110000 0.0 0.0
1.115000 0.0 0.0
1.120000 0.0 0.0
1.125000 0.0 0.0
1.130000 0.0 0.0
1.135000 0.0 0.0
1.140000 0.0 0.0
1.145000 0.0 0.0
1.150000 0.0 0.0
1.155000 0.0 0.0
1.160000 0.0 0.0
1.165000 0.0 0.0
1.170000 0.0 0.0
1.175000 0.0 0.0
1.180000 0.0 0.0
1.185000 0.0 0.0
1.190000 0.0 0.0
1.195000 0.0 0.0
1.200000 0.0 0.0
1.205000 0.0 0.0
1.210000 0.0 0.0
1.215000 0.0 0.0
1.220000 0.0 0.0
1.225000 0.0 0.0
1.230000 0.0 0.0
1.235000 0.0 0.0
1.240000 0.0 0.0
1.245000 0.0 0.0
1.250000 0.0 0.0
1.255000 0.0 0.0
1.260000 0.0 0.0
1.265000 0.0 0.0
1.270000 0.0 0.0
1.275000 0.0 0.0
1.280000 0.0 0.0
1.285000 0.0 0.0
1.290000 0.0 0.0
1.295000 0.0 0.0
1.300000 0.0 0.0
1.305000 0.0 0.0
1.310000 0.0 0.0
1.315000 0.0 0.0
1.320000 0.0 0.0
1.325000 0.0 0.0
1.330000 0.0 0.0
1.335000 0.0 0.0
1.340000 0.0 0.0
1.345000 0.0 0.0
1.350000 0.0 0.0
1.355000 0.0 0.0
1.360000 0.0 0.0
1.365000 0.0 0.0
1.370000 0.0 0.0
1.375000 0.0 0.0
1.380000 0.0 0.0
1.385000 0.0 0.0
1.390000 0.0 0.0
1.395000 0.0 0.0
1.400000 0.0 0.0
1.405000 0.0 0.0
1.410000 0.0 0.0
1.415000 0.0 0.0
1.420000 0.0 0.0
1.425000 0.0 0.0
1.430000 0.0 0.0
1.435000 0.0 0.0
1.440000 0.0 0.0
1.445000 0.0 0.0
1.450000 0.0 0.0
1.455000 0.0 0.0
1.460000 0.0 0.0
1.465000 0.0 0.0
1.470000 0.0 0.0
1.475000 0.0 0.0
1.480000 0.0 0.0
1.485000 0.0 0.0
1.490000 0.0 0.0
1.495000 0.0 0.0
1.500000 0.0 0.0
1.505000 0.0 0.0
1.510000 0.0 0.0
1.515000 0.0 0.0
1.520000 0.0 0.0
1.525000 0.0 0.0
1.530000 0.0 0.0
1.535000 0.0 0.0
1.540000 0.0 0.0
1.545000 0.0 0.0
1.550000 0.0 0.0
1.555000 0.0 0.0
1.560000 0.0 0.0
1.565000 0.0 0.0
1.570000 0.0 0.0
1.575000 0.0 0.0
1.580000 0.0 0.0
1.585000 0.0 0.0
1.590000 0.0 0.0
1.595000 0.0 0.0
1.600000 0.0 0.0
1.605000 0.0 0.0
1.610000 0.0 0.0
1.615000 0.0 0.0
1.620000 0.0 0.0
1.625000 0.0 0.0
1.630000 0.0 0.0
1.635000 0.0 0.0
1.640000 0.0 0.0
1.645000 0.0 0.0
1.650000 0.0 0.0
1.655000 0.0 0.0
1.660000 0.0 0.0
1.665000 0.0 0.0
1.670000 0.0 0.0
1.675000 0.0 0.0
1.680000 0.0 0.0
1.685000 0.0 0.0
1.690000 0.0 0.0
1.695000 0.0 0.0
1.700000 0.0 0.0
1.705000 0.0 0.0
1.710000 0.0 0.0
1.715000 0.0 0.0
1.720000 0.0 0.0
1.725000 0.0 0.0
1.730000 0.0 0.0
1.735000 0.0 0.0
1.740000 0.0 0.0
1.745000 0.0 0.0
1.750000 0.0 0.0
1.755000 0.0 0.0
1.760000 0.0 0.0
1.765000 0.0 0.0
1.770000 0.0 0.0
1.775000 0.0 0.0
1.780000 0.0 0.0
1.785000 0.0 0.0
1.790000 0.0 0.0
1.795000 0.0 0.0
1.800000 0.0 0.0
1.805000 0.0 0.0
1.810000 0.0 0.0
1.815000 0.0 0.0
1.820000 0.0 0.0
1.825000 0.0 0.0
1.830000 0.0 0.0
1.835000 0.0 0.0
1.840000 0.0 0.0
1.845000 0.0 0.0
1.850000 0.0 0.0
1.855000 0.0 0.0
1.860000 0.0 0.0
1.865000 0.0 0.0
1.870000 0.0 0.0
1.875000 0.0 0.0
1.880000 0.0 0.0
1.885000 0.0 0.0
1.890000 0.0 0.0
1.895000 0.0 0.0
1.900000 0.0 0.0
1.905000 0.0 0.0
1.910000 0.0 0.0
1.915000 0.0 0.0
1.920000 0.0 0.0
1.925000 0.0 0.0
1.930000 0.0 0.0
1.935000 0.0 0.0
1.940000 0.0 0.0
1.945000 0.0 0.0
1.950000 0.0 0.0
1.955000 0.0 0.0
1.960000 0.0 0.0
1.965000 0.0 0.0
1.970000 0.0 0.0
1.975000 0.0 0.0
1.980000 0.0 0.0
1.985000 0.0 0.0
1.990000 0.0 0.0
1.995000 0.0 0.0
2.000000 0.0 0.0
2.005000 0.0 0.0
2.010000 0.0 0.0
2.015000 0.0 0.0
2.020000 0.0 0.0
2.025000 0.0 0.0
2.030000 0.0 0.0
2.035000 0.0 0.0
2.040000 0.0 0.0
2.045000 0.0 0.0
2.050000 0.0 0.0
2.055000 0.0 0.0
2.060000 0.0 0.0
2.065000 0.0 0.0
2.070000 0.0 0.0
2.075000 0.0 0.0
2.080000 0.0 0.0
2.085000 0.0 0.0
2.090000 0.0 0.0
2.095000 0.0 0.0
2.100000 0.0 0.0
2.105000 0.0 0.0
2.110000 0.0 0.0
2.115000 0.0 0.0
2.120000 0.0 0.0
2.125000 0.0 0.0
2.130000 0.0 0.0
2.135000 0.0 0.0
2.140000 0.0 0.0
2.145000 0.0 0.0
2.150000 0.0 0.0
2.155000 0.0 0.0
2.160000 0.0 0.0
2.165000 0.0 0.0
2.170000 0.0 0.0
2.175000 0.0 0.0
2.180000 0.0 0.0
2.185000 0.0 0.0
2.190000 0.0 0.0
2.195000 0.0 0.0
2.200000 0.0 0.0
2.205000 0.0 0.0
2.210000 0.0 0.0
2.215000 0.0 0.0
2.220000 0.0 0.0
2.225000 0.0 0.0
2.230000 0.0 0.0
2.235000 0.0 0.0
2.240000 0.0 0.0
2.245000 0.0 0.0
2.250000 0.0 0.0
2.255000 0.0 0.0
2.260000 0.0 0.0
2.265000 0.0 0.0
2.270000 0.0 0.0
2.275000 0.0 0.0
2.280000 0.0 0.0
2.285000 0.0 0.0
2.290000 0.0 0.0
2.295000 0.0 0.0
2.300000 0.0 0.0
2.305000 0.0 0.0
2.310000 0.0 0.0
2.315000 0.0 0.0
2.320000 0.0 0.0
2.325000 0.0 0.0
2.330000 0.0 0.0
2.335000 0.0 0.0
2.340000 0.0 0.0
2.345000 0.0 0.0
2.350000 0.0 0.0
2.355000 0.0 0.0
2.360000 0.0 0.0
2.365000 0.0 0.0
2.370000 0.0 0.0
2.375000 0.0 0.0
2.380000 0.0 0.0
2.385000 0.0 0.0
2.390000 0.0 0.0
2.395000 0.0 0.0
2.400000 0.0 0.0
2.405000 0.0 0.0
2.410000 0.0 0.0
2.415000 0.0 0.0
2.420000 0.0 0.0
2.425000 0.0 0.0
2.430000 0.0 0.0
2.435000 0.0 0.0
2.440000 0.0 0.0
2.445000 0.0 0.0
2.450000 0.0 0.0
2.455000 0.0 0.0
2.460000 0.0 0.0
2.465000 0.0 0.0
2.470000 0.0 0.0
2.475000 0.0 0.0
2.480000 0.0 0.0
2.485000 0.0 0.0
2.490000 0.0 0.0
2.495000 0.0 0.0
2.500000 0.0 0.0
2.505000 0.0 0.0
2.510000 0.0 0.0
2.515000 0.0 0.0
2.520000 0.0 0.0
2.525000 0.0 0.0
2.530000 0.0 0.0
2.535000 0.0 0.0
2.540000 0.0 0.0
2.545000 0.0 0.0
2.550000 0.0 0.0
2.555000 0.0 0.0
2.560000 0.0 0.0
2.565000 0.0 0.0
2.570000 0.0 0.0
2.575000 0.0 0.0
2.580000 0.0 0.0
2.585000 0.0 0.0
2.590000 0.0 0.0
2.595000 0.0 0.0
2.600000 0.0 0.0
2.605000 0.0 0.0
2.610000 0.0 0.0
2.615000 0.0 0.0
2.620000 0.0 0.0
2.625000 0.0 0.0
2.630000 0.0 0.0
2.635000 0.0 0.0
2.640000 0.0 0.0
2.645000 0.0 0.0
2.650000 0.0 0.0
2.655000 0.0 0.0
2.660000 0.0 0.0
2.665000 0.0 0.0
2.670000 0.0 0.0
2.675000 0.0 0.0
2.680000 0.0 0.0
2.685000 0.0 0.0
2.690000 0.0 0.0
2.695000 0.0 0.0
2.700000 0.0 0.0
2.705000 0.0 0.0
2.710000 0.0 0.0
2.715000 0.0 0.0
2.720000 0.0 0.0
2.725000 0.0 0.0
2.730000 0.0 0.0
2.735000 0.0 0.0
2.740000 0.0 0.0
2.745000 0.0 0.0
2.750000 0.0 0.0
2.755000 0.0 0.0
2.760000 0.0 0.0
2.765000 0.0 0.0
2.770000 0.0 0.0
2.775000 0.0 0.0
2.780000 0.0 0.0
2.785000 0.0 0.0
2.790000 0.0 0.0
2.795000 0.0 0.0
2.800000 0.0 0.0
2.805000 0.0 0.0
2.810000 0.0 0.0
2.815000 0.0 0.0
2.820000 0.0 0.0
2.825000 0.0 0.0
2.830000 0.0 0.0
2.835000 0.0 0.0
2.840000 0.0 0.0
2.845000 0.0 0.0
2.850000 0.0 0.0
2.855000 0.0 0.0
2.860000 0.0 0.0
[...]
      <PointData Scalars="Temperature">
        <DataArray type="Float32" Name="Temperature" format="ascii">
308.150000
307.240938
306.332049
305.423508
304.515487
303.608159
302.701698
301.796274
300.892060
299.989227
299.087945
298.188383
297.290709
296.395091
295.501695
294.610685
293.722226
292.836479
291.953606
291.073765
290.197114
289.323809
288.454003
287.587850
286.725498
285.867096
285.012789
284.162722
283.317034
282.475865
281.639350
280.807622
279.980810
279.159043
278.342442
277.531127
276.725215
275.924817
275.130097
274.344040
273.644738
273.261409
273.068875
272.944172
272.849351
272.770590
272.701601
272.639053
272.580989
272.526171
272.473771
272.423212
272.374082
272.326074
272.278961
272.232567
272.186759
272.141430
272.096498
272.051898
272.007578
271.963498
271.919623
271.875928
271.832392
271.788998
271.745732
271.702584
271.659544
271.616607
271.573767
271.531019
271.488361
271.445790
271.403303
271.360901
271.318581
271.276344
271.234189
271.192115
271.150124
271.108214
271.066387
271.024643
270.982983
270.941406
270.899914
270.858507
270.817187
270.775953
270.734806
270.693747
270.652778
270.611898
270.571108
270.530409
270.489803
270.449289
270.408869
270.368543
270.328312
270.288177
270.248138
270.208197
270.168354
270.128609
270.088964
270.049420
270.009976
269.970634
269.931394
269.892257
269.853224
269.814296
269.775473
269.736755
269.698144
269.659640
269.621245
269.582957
269.544779
269.506710
269.468752
269.430904
269.393168
269.355545
269.318034
269.280637
269.243353
269.206184
269.169130
269.132192
269.095370
269.058665
269.022077
268.985607
268.949256
268.913023
268.876909
268.840916
268.805043
268.769290
268.733659
268.698150
268.662763
268.627499
268.592358
268.557340
268.522447
268.487678
268.453034
268.418515
268.384122
268.349855
268.315714
268.281700
268.247814
268.214055
268.180423
268.146921
268.113546
268.080301
268.047185
268.014199
267.981342
267.948616
267.916020
267.883555
267.851221
267.819018
267.786947
267.755007
267.723200
267.691525
267.659983
267.628573
267.597296
267.566153
267.535143
267.504266
267.473524
267.442915
267.412440
267.382100
267.351894
267.321823
267.291887
267.262085
267.232419
267.202887
267.173491
267.144230
267.115105
267.086115
267.057261
267.028542
266.999960
266.971513
266.943202
266.915027
266.886988
266.859085
266.831318
266.803687
266.776193
266.748834
266.721611
266.694525
266.667575
266.640760
266.614082
266.587540
266.561133
266.534863
266.508728
266.482730
266.456867
266.431139
266.405548
266.380092
266.354771
266.329585
266.304535
266.279620
266.254840
266.230195
266.205684
266.181308
266.157067
266.132960
266.108987
266.085148
266.061443
266.037871
266.014433
265.991129
265.967957
265.944919
265.922013
265.899240
265.876600
265.854091
265.831714
265.809469
265.787356
265.765374
265.743522
265.721802
265.700212
265.678752
265.657422
265.636222
265.615152
265.594210
265.573398
265.552714
265.532158
265.511731
265.491431
265.471259
265.451214
265.431295
265.411503
265.391838
265.372298
265.352884
265.333595
265.314431
265.295392
265.276476
265.257685
265.239017
265.220472
265.202050
265.183751
265.165573
265.147517
265.129583
265.111769
265.094076
265.076504
265.059051
265.041717
265.024502
265.007407
264.990429
264.973569
264.956826
264.940201
264.923692
264.907299
264.891022
264.874861
264.858814
264.842882
264.827064
264.811359
264.795768
264.780289
264.764923
264.749669
264.734526
264.719494
264.704573
264.689761
264.675060
264.660467
264.645984
264.631608
264.617341
264.603181
264.589127
264.575180
264.561340
264.547604
264.533974
264.520448
264.507026
264.493708
264.480493
264.467381
264.454371
264.441463
264.428655
264.415949
264.403343
264.390836
264.378429
264.366121
264.353911
264.341798
264.329783
264.317865
264.306044
264.294318
264.282687
264.271152
264.259710
264.248363
264.237109
264.225948
264.214879
264.203902
264.193017
264.182222
264.171518
264.160904
264.150379
264.139943
264.129595
264.119336
264.109164
264.099078
264.089080
264.079167
264.069339
264.059596
264.049938
264.040364
264.030873
264.021465
264.012140
264.002896
263.993734
263.984653
263.975652
263.966731
263.957890
263.949127
263.940443
263.931837
263.923309
263.914857
263.906482
263.898183
263.889959
263.881811
263.873737
263.865737
263.857811
263.849957
263.842177
263.834468
263.826831
263.819265
263.811770
263.804345
263.796990
263.789703
263.782486
263.775337
263.768256
263.761242
263.754295
263.747414
263.740599
263.733850
263.727165
263.720545
263.713989
263.707497
263.701068
263.694702
263.688397
263.682155
263.675973
263.669853
263.663793
263.657793
263.651852
263.645971
263.640148
263.634383
263.628676
263.623026
263.617433
263.611896
263.606415
263.600990
263.595620
263.590304
263.585043
263.579836
263.574681
263.569580
263.564532
263.559535
263.554590
263.549696
263.544854
263.540061
263.535319
263.530626
263.525983
263.521388
263.516841
263.512343
263.507892
263.503489
263.499132
263.494822
263.490557
263.486339
263.482165
263.478036
263.473952
263.469912
263.465916
263.461963
263.458053
263.454185
263.450360
263.446576
263.442834
263.439133
263.435473
263.431853
263.428273
263.424733
263.421232
263.417770
263.414347
263.410962
263.407614
263.404305
263.401032
263.397797
263.394598
263.391435
263.388308
263.385216
263.382160
263.379138
263.376151
263.373199
263.370280
263.367395
263.364543
263.361724
263.358937
263.356183
263.353461
263.350770
263.348111
263.345483
263.342886
263.340319
263.337783
263.335276
263.332799
263.330351
263.327932
263.325542
263.323181
263.320847
263.318541
263.316263
263.314013
263.311789
263.309592
263.307422
263.305278
263.303159
263.301067
263.299000
263.296958
263.294941
263.292949
263.290981
263.289037
263.287117
263.285221
263.283348
263.281498
263.279672
263.277868
263.276086
263.274326
263.272589
263.270873
263.269179
263.267506
263.265854
263.264223
263.262612
263.261022
263.259452
263.257902
263.256371
263.254860
263.253368
263.251896
263.250442
263.249007
263.247590
263.246192
263.244811
263.243449
263.242104
263.240776
263.239466
263.238173
263.236896
263.235636
263.234393
263.233166
263.231955
263.230760
263.229581
263.228418
263.227269
263.226136
263.225018
263.223915
263.222827
263.221753
263.220693
263.219647
263.218616
263.217598
263.216594
263.215604
263.214627
263.213663
263.212712
263.211774
263.210849
263.209937
263.209036
263.208149
263.207273
263.206409
263.205557
263.204717
263.203888
263.203071
263.202265
263.201471
263.200687
263.199914
263.199152
263.198400
263.197659
263.196928
263.196208
263.195497
263.194797
263.194106
263.193426
263.192754
263.192092
263.191440
263.190797
263.190163
263.189538
263.188921
263.188314
263.187715
263.187125
263.186543
263.185970
263.185405
263.184848
263.184299
263.183758
263.183225
263.182699
263.182181
263.181671
263.181168
263.180672
263.180184
263.179702
263.179228
263.178761
263.178300
263.177847
263.177400
263.176959
263.176525
263.176098
263.175676
263.175261
263.174853
263.174450
263.174053
263.173662
263.173277
263.172898
263.172524
263.172156
263.171794
263.171437
263.171085
263.170739
263.170398
263.170062
263.169731
263.169405
263.169084
263.168768
263.168456
263.168150
263.167848
263.167550
263.167258
263.166969
263.166685
263.166406
263.166131
263.165860
263.165593
263.165330
263.165071
263.164817
263.164566
263.164319
263.164076
263.163837
263.163601
263.163369
263.163141
263.162916
263.162695
263.162477
263.162262
263.162051
263.161843
263.161639
263.161437
263.161239
263.161044
263.160852
263.160663
263.160477
263.160294
263.160114
263.159936
263.159762
263.159590
263.159421
263.159254
263.159090
263.158929
263.158770
263.158614
263.158460
263.158309
263.158160
263.158013
263.157869
263.157727
263.157587
263.157450
263.157314
263.157181
263.157050
263.156921
263.156794
263.156669
263.156546
263.156425
263.156306
263.156188
263.156073
263.155959
263.155848
263.155737
263.155629
263.155522
263.155417
263.155314
263.155212
263.155112
263.155013
263.154916
263.154821
263.154727
263.154634
263.154543
263.154453
263.154365
263.154278
263.154192
263.154107
263.154024
263.153942
263.153861
263.153782
263.153704
263.153627
263.153550
263.153476
263.153402
263.153329
263.153257
263.153187
263.153117
263.153049
263.152981
263.152914
263.152848
263.152784
263.152720
263.152657
263.152594
263.152533
263.152472
263.152413
263.152354
263.152295
263.152238
263.152181
263.152125
263.152070
263.152015
263.151961
263.151908
263.151855
263.151803
263.151751
263.151700
263.151650
263.151600
263.151551
263.151502
263.151453
263.151406
263.151358
263.151311
263.151265
263.151219
263.151173
263.151128
263.151083
263.151038
263.150994
263.150950
263.150907
263.150863
263.150820
263.150778
263.150735
263.150693
263.150651
263.150609
263.150568
263.150526
263.150485
263.150444
263.150403
263.150363
263.150322
263.150282
263.150241
263.150201
263.150161
263.150120
263.150080
263.150040
263.150000
        </DataArray>
      </PointData>
      <CellData>
      </CellData>
    </Piece>
  </UnstructuredGrid>
</VTKFile>
