<?xml version="1.0"?>
<VTKFile type="UnstructuredGrid" version="0.1" byte_order="LittleEndian">
  <UnstructuredGrid>
    <Piece NumberOfPoints="801" NumberOfCells="800">
      <Points>
        <DataArray type="Float32" NumberOfComponents="3" format="ascii">
0.000000 0.0 0.0
0.005000 0.0 0.0
0.010000 0.0 0.0
0.015000 0.0 0.0
0.020000 0.0 0.0
0.025000 0.0 0.0
0.030000 0.0 0.0
0.035000 0.0 0.0
0.040000 0.0 0.0
0.045000 0.0 0.0
0.050000 0.0 0.0
0.055000 0.0 0.0
0.060000 0.0 0.0
0.065000 0.0 0.0
0.070000 0.0 0.0
0.075000 0.0 0.0
0.080000 0.0 0.0
0.085000 0.0 0.0
0.090000 0.0 0.0
0.095000 0.0 0.0
0.100000 0.0 0.0
0.105000 0.0 0.0
0.110000 0.0 0.0
0.115000 0.0 0.0
0.120000 0.0 0.0
0.125000 0.0 0.0
0.130000 0.0 0.0
0.135000 0.0 0.0
0.140000 0.0 0.0
0.145000 0.0 0.0
0.150000 0.0 0.0
0.155000 0.0 0.0
0.160000 0.0 0.0
0.165000 0.0 0.0
0.170000 0.0 0.0
0.175000 0.0 0.0
0.180000 0.0 0.0
0.185000 0.0 0.0
0.190000 0.0 0.0
0.195000 0.0 0.0
0.200000 0.0 0.0
0.205000 0.0 0.0
0.210000 0.0 0.0
0.215000 0.0 0.0
0.220000 0.0 0.0
0.225000 0.0 0.0
0.230000 0.0 0.0
0.235000 0.0 0.0
0.240000 0.0 0.0
0.245000 0.0 0.0
0.250000 0.0 0.0
0.255000 0.0 0.0
0.260000 0.0 0.0
0.265000 0.0 0.0
0.270000 0.0 0.0
0.275000 0.0 0.0
0.280000 0.0 0.0
0.285000 0.0 0.0
0.290000 0.0 0.0
0.295000 0.0 0.0
0.300000 0.0 0.0
0.305000 0.0 0.0
0.310000 0.0 0.0
0.315000 0.0 0.0
0.320000 0.0 0.0
0.325000 0.0 0.0
0.330000 0.0 0.0
0.335000 0.0 0.0
0.340000 0.0 0.0
0.345000 0.0 0.0
0.350000 0.0 0.0
0.355000 0.0 0.0
0.360000 0.0 0.0
0.365000 0.0 0.0
0.370000 0.0 0.0
0.375000 0.0 0.0
0.380000 0.0 0.0
0.385000 0.0 0.0
0.390000 0.0 0.0
0.395000 0.0 0.0
0.400000 0.0 0.0
0.405000 0.0 0.0
0.410000 0.0 0.0
0.415000 0.0 0.0
0.420000 0.0 0.0
0.425000 0.0 0.0
0.430000 0.0 0.0
0.435000 0.0 0.0
0.440000 0.0 0.0
0.445000 0.0 0.0
0.450000 0.0 0.0
0.455000 0.0 0.0
0.460000 0.0 0.0
0.465000 0.0 0.0
0.470000 0.0 0.0
0.475000 0.0 0.0
0.480000 0.0 0.0
0.485000 0.0 0.0
0.490000 0.0 0.0
0.495000 0.0 0.0
0.500000 0.0 0.0
0.505000 0.0 0.0
0.510000 0.0 0.0
0.515000 0.0 0.0
0.520000 0.0 0.0
0.525000 0.0 0.0
0.530000 0.0 0.0
0.535000 0.0 0.0
0.540000 0.0 0.0
0.545000 0.0 0.0
0.550000 0.0 0.0
0.555000 0.0 0.0
0.560000 0.0 0.0
0.565000 0.0 0.0
0.570000 0.0 0.0
0.575000 0.0 0.0
0.580000 0.0 0.0
0.585000 0.0 0.0
0.590000 0.0 0.0
0.595000 0.0 0.0
0.600000 0.0 0.0
0.605000 0.0 0.0
0.610000 0.0 0.0
0.615000 0.0 0.0
0.620000 0.0 0.0
0.625000 0.0 0.0
0.630000 0.0 0.0
0.635000 0.0 0.0
0.640000 0.0 0.0
0.645000 0.0 0.0
0.650000 0.0 0.0
0.655000 0.0 0.0
0.660000 0.0 0.0
0.665000 0.0 0.0
0.670000 0.0 0.0
0.675000 0.0 0.0
0.680000 0.0 0.0
0.685000 0.0 0.0
0.690000 0.0 0.0
0.695000 0.0 0.0
0.700000 0.0 0.0
0.705000 0.0 0.0
0.710000 0.0 0.0
0.715000 0.0 0.0
0.720000 0.0 0.0
0.725000 0.0 0.0
0.730000 0.0 0.0
0.735000 0.0 0.0
0.740000 0.0 0.0
0.745000 0.0 0.0
0.750000 0.0 0.0
0.755000 0.0 0.0
0.760000 0.0 0.0
0.765000 0.0 0.0
0.770000 0.0 0.0
0.775000 0.0 0.0
0.780000 0.0 0.0
0.785000 0.0 0.0
0.790000 0.0 0.0
0.795000 0.0 0.0
0.800000 0.0 0.0
0.805000 0.0 0.0
0.810000 0.0 0.0
0.815000 0.0 0.0
0.820000 0.0 0.0
0.825000 0.0 0.0
0.830000 0.0 0.0
0.835000 0.0 0.0
0.840000 0.0 0.0
0.845000 0.0 0.0
0.850000 0.0 0.0
0.855000 0.0 0.0
0.860000 0.0 0.0
0.865000 0.0 0.0
0.870000 0.0 0.0
0.875000 0.0 0.0
0.880000 0.0 0.0
0.885000 0.0 0.0
0.890000 0.0 0.0
0.895000 0.0 0.0
0.900000 0.0 0.0
0.905000 0.0 0.0
0.910000 0.0 0.0
0.915000 0.0 0.0
0.920000 0.0 0.0
0.925000 0.0 0.0
0.930000 0.0 0.0
0.935000 0.0 0.0
0.940000 0.0 0.0
0.945000 0.0 0.0
0.950000 0.0 0.0
0.955000 0.0 0.0
0.960000 0.0 0.0
0.965000 0.0 0.0
0.970000 0.0 0.0
0.975000 0.0 0.0
0.980000 0.0 0.0
0.985000 0.0 0.0
0.990000 0.0 0.0
0.995000 0.0 0.0
1.000000 0.0 0.0
1.005000 0.0 0.0
1.010000 0.0 0.0
1.015000 0.0 0.0
1.020000 0.0 0.0
1.025000 0.0 0.0
1.030000 0.0 0.0
1.035000 0.0 0.0
1.040000 0.0 0.0
1.045000 0.0 0.0
1.050000 0.0 0.0
1.055000 0.0 0.0
1.060000 0.0 0.0
1.065000 0.0 0.0
1.070000 0.0 0.0
1.075000 0.0 0.0
1.080000 0.0 0.0
1.085000 0.0 0.0
1.090000 0.0 0.0
1.095000 0.0 0.0
1.100000 0.0 0.0
1.105000 0.0 0.0
1.110000 0.0 0.0
1.115000 0.0 0.0
1.120000 0.0 0.0
1.125000 0.0 0.0
1.130000 0.0 0.0
1.135000 0.0 0.0
1.140000 0.0 0.0
1.145000 0.0 0.0
1.150000 0.0 0.0
1.155000 0.0 0.0
1.160000 0.0 0.0
1.165000 0.0 0.0
1.170000 0.0 0.0
1.175000 0.0 0.0
1.180000 0.0 0.0
1.185000 0.0 0.0
1.190000 0.0 0.0
1.195000 0.0 0.0
1.200000 0.0 0.0
1.205000 0.0 0.0
1.210000 0.0 0.0
1.215000 0.0 0.0
1.220000 0.0 0.0
1.225000 0.0 0.0
1.230000 0.0 0.0
1.235000 0.0 0.0
1.240000 0.0 0.0
1.245000 0.0 0.0
1.250000 0.0 0.0
1.255000 0.0 0.0
1.260000 0.0 0.0
1.265000 0.0 0.0
1.270000 0.0 0.0
1.275000 0.0 0.0
1.280000 0.0 0.0
1.285000 0.0 0.0
1.290000 0.0 0.0
1.295000 0.0 0.0
1.300000 0.0 0.0
1.305000 0.0 0.0
1.310000 0.0 0.0
1.315000 0.0 0.0
1.320000 0.0 0.0
1.325000 0.0 0.0
1.330000 0.0 0.0
1.335000 0.0 0.0
1.340000 0.0 0.0
1.345000 0.0 0.0
1.350000 0.0 0.0
1.355000 0.0 0.0
1.360000 0.0 0.0
1.365000 0.0 0.0
1.370000 0.0 0.0
1.375000 0.0 0.0
1.380000 0.0 0.0
1.385000 0.0 0.0
1.390000 0.0 0.0
1.395000 0.0 0.0
1.400000 0.0 0.0
1.405000 0.0 0.0
1.410000 0.0 0.0
1.415000 0.0 0.0
1.420000 0.0 0.0
1.425000 0.0 0.0
1.430000 0.0 0.0
1.435000 0.0 0.0
1.440000 0.0 0.0
1.445000 0.0 0.0
1.450000 0.0 0.0
1.455000 0.0 0.0
1.460000 0.0 0.0
1.465000 0.0 0.0
1.470000 0.0 0.0
1.475000 0.0 0.0
1.480000 0.0 0.0
1.485000 0.0 0.0
1.490000 0.0 0.0
1.495000 0.0 0.0
1.500000 0.0 0.0
1.505000 0.0 0.0
1.510000 0.0 0.0
1.515000 0.0 0.0
1.520000 0.0 0.0
1.525000 0.0 0.0
1.530000 0.0 0.0
1.535000 0.0 0.0
1.540000 0.0 0.0
1.545000 0.0 0.0
1.550000 0.0 0.0
1.555000 0.0 0.0
1.560000 0.0 0.0
1.565000 0.0 0.0
1.570000 0.0 0.0
1.575000 0.0 0.0
1.580000 0.0 0.0
1.585000 0.0 0.0
1.590000 0.0 0.0
1.595000 0.0 0.0
1.600000 0.0 0.0
1.605000 0.0 0.0
1.610000 0.0 0.0
1.615000 0.0 0.0
1.620000 0.0 0.0
1.625000 0.0 0.0
1.630000 0.0 0.0
1.635000 0.0 0.0
1.640000 0.0 0.0
1.645000 0.0 0.0
1.650000 0.0 0.0
1.655000 0.0 0.0
1.660000 0.0 0.0
1.665000 0.0 0.0
1.670000 0.0 0.0
1.675000 0.0 0.0
1.680000 0.0 0.0
1.685000 0.0 0.0
1.690000 0.0 0.0
1.695000 0.0 0.0
1.700000 0.0 0.0
1.705000 0.0 0.0
1.710000 0.0 0.0
1.715000 0.0 0.0
1.720000 0.0 0.0
1.725000 0.0 0.0
1.730000 0.0 0.0
1.735000 0.0 0.0
1.740000 0.0 0.0
1.745000 0.0 0.0
1.750000 0.0 0.0
1.755000 0.0 0.0
1.760000 0.0 0.0
1.765000 0.0 0.0
1.770000 0.0 0.0
1.775000 0.0 0.0
1.780000 0.0 0.0
1.785000 0.0 0.0
1.790000 0.0 0.0
1.795000 0.0 0.0
1.800000 0.0 0.0
1.805000 0.0 0.0
1.810000 0.0 0.0
1.815000 0.0 0.0
1.820000 0.0 0.0
1.825000 0.0 0.0
1.830000 0.0 0.0
1.835000 0.0 0.0
1.840000 0.0 0.0
1.845000 0.0 0.0
1.850000 0.0 0.0
1.855000 0.0 0.0
1.860000 0.0 0.0
1.865000 0.0 0.0
1.870000 0.0 0.0
1.875000 0.0 0.0
1.880000 0.0 0.0
1.885000 0.0 0.0
1.890000 0.0 0.0
1.895000 0.0 0.0
1.900000 0.0 0.0
1.905000 0.0 0.0
1.910000 0.0 0.0
1.915000 0.0 0.0
1.920000 0.0 0.0
1.925000 0.0 0.0
1.930000 0.0 0.0
1.935000 0.0 0.0
1.940000 0.0 0.0
1.945000 0.0 0.0
1.950000 0.0 0.0
1.955000 0.0 0.0
1.960000 0.0 0.0
1.965000 0.0 0.0
1.970000 0.0 0.0
1.975000 0.0 0.0
1.980000 0.0 0.0
1.985000 0.0 0.0
1.990000 0.0 0.0
1.995000 0.0 0.0
2.000000 0.0 0.0
2.005000 0.0 0.0
2.010000 0.0 0.0
2.015000 0.0 0.0
2.020000 0.0 0.0
2.025000 0.0 0.0
2.030000 0.0 0.0
2.035000 0.0 0.0
2.040000 0.0 0.0
2.045000 0.0 0.0
2.050000 0.0 0.0
2.055000 0.0 0.0
2.060000 0.0 0.0
2.065000 0.0 0.0
2.070000 0.0 0.0
2.075000 0.0 0.0
2.080000 0.0 0.0
2.085000 0.0 0.0
2.090000 0.0 0.0
2.095000 0.0 0.0
2.100000 0.0 0.0
2.105000 0.0 0.0
2.110000 0.0 0.0
2.115000 0.0 0.0
2.120000 0.0 0.0
2.125000 0.0 0.0
2.130000 0.0 0.0
2.135000 0.0 0.0
2.140000 0.0 0.0
2.145000 0.0 0.0
2.150000 0.0 0.0
2.155000 0.0 0.0
2.160000 0.0 0.0
2.165000 0.0 0.0
2.170000 0.0 0.0
2.175000 0.0 0.0
2.180000 0.0 0.0
2.185000 0.0 0.0
2.190000 0.0 0.0
2.195000 0.0 0.0
2.200000 0.0 0.0
2.205000 0.0 0.0
2.210000 0.0 0.0
2.215000 0.0 0.0
2.220000 0.0 0.0
2.225000 0.0 0.0
2.230000 0.0 0.0
2.235000 0.0 0.0
2.240000 0.0 0.0
2.245000 0.0 0.0
2.250000 0.0 0.0
2.255000 0.0 0.0
2.260000 0.0 0.0
2.265000 0.0 0.0
2.270000 0.0 0.0
2.275000 0.0 0.0
2.280000 0.0 0.0
2.285000 0.0 0.0
2.290000 0.0 0.0
2.295000 0.0 0.0
2.300000 0.0 0.0
2.305000 0.0 0.0
2.310000 0.0 0.0
2.315000 0.0 0.0
2.320000 0.0 0.0
2.325000 0.0 0.0
2.330000 0.0 0.0
2.335000 0.0 0.0
2.340000 0.0 0.0
2.345000 0.0 0.0
2.350000 0.0 0.0
2.355000 0.0 0.0
2.360000 0.0 0.0
2.365000 0.0 0.0
2.370000 0.0 0.0
2.375000 0.0 0.0
2.380000 0.0 0.0
2.385000 0.0 0.0
2.390000 0.0 0.0
2.395000 0.0 0.0
2.400000 0.0 0.0
2.405000 0.0 0.0
2.410000 0.0 0.0
2.415000 0.0 0.0
2.420000 0.0 0.0
2.425000 0.0 0.0
2.430000 0.0 0.0
2.435000 0.0 0.0
2.440000 0.0 0.0
2.445000 0.0 0.0
2.450000 0.0 0.0
2.455000 0.0 0.0
2.460000 0.0 0.0
2.465000 0.0 0.0
2.470000 0.0 0.0
2.475000 0.0 0.0
2.480000 0.0 0.0
2.485000 0.0 0.0
2.490000 0.0 0.0
2.495000 0.0 0.0
2.500000 0.0 0.0
2.505000 0.0 0.0
2.510000 0.0 0.0
2.515000 0.0 0.0
2.520000 0.0 0.0
2.525000 0.0 0.0
2.530000 0.0 0.0
2.535000 0.0 0.0
2.540000 0.0 0.0
2.545000 0.0 0.0
2.550000 0.0 0.0
2.555000 0.0 0.0
2.560000 0.0 0.0
2.565000 0.0 0.0
2.570000 0.0 0.0
2.575000 0.0 0.0
2.580000 0.0 0.0
2.585000 0.0 0.0
2.590000 0.0 0.0
2.595000 0.0 0.0
2.600000 0.0 0.0
2.605000 0.0 0.0
2.610000 0.0 0.0
2.615000 0.0 0.0
2.620000 0.0 0.0
2.625000 0.0 0.0
2.630000 0.0 0.0
2.635000 0.0 0.0
2.640000 0.0 0.0
2.645000 0.0 0.0
2.650000 0.0 0.0
2.655000 0.0 0.0
2.660000 0.0 0.0
2.665000 0.0 0.0
2.670000 0.0 0.0
2.675000 0.0 0.0
2.680000 0.0 0.0
2.685000 0.0 0.0
2.690000 0.0 0.0
2.695000 0.0 0.0
2.700000 0.0 0.0
2.705000 0.0 0.0
2.710000 0.0 0.0
2.715000 0.0 0.0
2.720000 0.0 0.0
2.725000 0.0 0.0
2.730000 0.0 0.0
2.735000 0.0 0.0
2.740000 0.0 0.0
2.745000 0.0 0.0
2.750000 0.0 0.0
2.755000 0.0 0.0
2.760000 0.0 0.0
2.765000 0.0 0.0
2.770000 0.0 0.0
2.775000 0.0 0.0
2.780000 0.0 0.0
2.785000 0.0 0.0
2.790000 0.0 0.0
2.795000 0.0 0.0
2.800000 0.0 0.0
2.805000 0.0 0.0
2.810000 0.0 0.0
2.815000 0.0 0.0
2.820000 0.0 0.0
2.825000 0.0 0.0
2.830000 0.0 0.0
2.835000 0.0 0.0
2.840000 0.0 0.0
2.845000 0.0 0.0
2.850000 0.0 0.0
2.855000 0.0 0.0
2.860000 0.0 0.0
[...]
      <PointData Scalars="Temperature">
        <DataArray type="Float32" Name="Temperature" format="ascii">
308.150000
306.576333
305.003510
303.432375
301.863769
300.298529
298.737489
297.181475
295.631308
294.087801
292.551755
291.023965
289.505212
287.996262
286.497869
285.010769
283.535681
282.073300
280.624299
279.189319
277.768970
276.363818
274.974698
273.707794
273.169339
272.938813
272.786063
272.663429
272.555690
272.456326
272.362040
272.270992
272.182087
272.094650
272.008251
271.922616
271.837566
271.752986
271.668803
271.584969
271.501456
271.418246
271.335331
271.252708
271.170377
271.088339
271.006599
270.925161
270.844032
270.763216
270.682721
270.602553
270.522718
270.443222
270.364072
270.285274
270.206835
270.128760
270.051056
269.973729
269.896784
269.820228
269.744066
269.668304
269.592947
269.518000
269.443470
269.369360
269.295677
269.222424
269.149608
269.077231
269.005300
268.933818
268.862791
268.792221
268.722113
268.652471
268.583300
268.514602
268.446381
268.378641
268.311385
268.244617
268.178339
268.112554
268.047266
267.982477
267.918190
267.854406
267.791129
267.728361
267.666104
267.604360
267.543131
267.482418
267.422224
267.362549
267.303395
267.244764
267.186656
267.129073
267.072016
267.015484
266.959480
266.904004
266.849056
266.794636
266.740745
266.687383
266.634549
266.582245
266.530469
266.479222
266.428502
266.378310
266.328645
266.279505
266.230892
266.182802
266.135236
266.088193
266.041670
265.995667
265.950183
265.905216
265.860765
265.816827
265.773402
265.730487
265.688080
265.646180
265.604784
265.563891
265.523497
265.483602
265.444203
265.405296
265.366880
265.328952
265.291510
265.254551
265.218072
265.182070
265.146543
265.111487
265.076900
265.042779
265.009120
264.975921
264.943177
264.910887
264.879047
264.847654
264.816703
264.786193
264.756118
264.726477
264.697265
264.668480
264.640116
264.612172
264.584642
264.557524
264.530815
264.504509
264.478604
264.453096
264.427980
264.403254
264.378914
264.354955
264.331375
264.308168
264.285331
264.262861
264.240754
264.219005
264.197611
264.176568
264.155873
264.135520
264.115507
264.095829
264.076483
264.057465
264.038771
264.020396
264.002338
263.984592
263.967155
263.950023
263.933191
263.916656
263.900415
263.884463
263.868797
263.853413
263.838308
263.823476
263.808916
263.794623
263.780593
263.766823
263.753310
263.740049
263.727037
263.714270
263.701746
263.689460
263.677409
263.665589
263.653997
263.642630
263.631485
263.620557
263.609844
263.599341
263.589047
263.578958
263.569070
263.559380
263.549886
263.540583
263.531470
263.522542
263.513797
263.505231
263.496843
263.488628
263.480584
263.472708
263.464997
263.457449
263.450060
263.442827
263.435749
263.428822
263.422044
263.415411
263.408922
263.402574
263.396364
263.390289
263.384348
263.378538
263.372856
263.367301
263.361869
263.356558
263.351366
263.346291
263.341331
263.336483
263.331745
263.327115
263.322592
263.318172
263.313854
263.309636
263.305516
263.301491
263.297561
263.293723
263.289975
263.286315
263.282742
263.279254
263.275849
263.272526
263.269282
263.266116
263.263026
263.260011
263.257070
263.254200
263.251400
263.248668
263.246004
263.243406
263.240872
263.238400
263.235990
263.233641
263.231350
263.229116
263.226939
263.224817
263.222748
263.220732
263.218767
263.216853
263.214987
263.213170
263.211399
263.209674
263.207994
263.206357
263.204763
263.203210
263.201699
263.200227
263.198793
263.197398
263.196039
263.194717
263.193430
263.192177
263.190957
263.189771
263.188616
263.187492
263.186399
263.185336
263.184301
263.183294
263.182315
263.181363
263.180437
263.179537
263.178661
263.177809
263.176982
263.176177
263.175394
263.174634
263.173894
263.173176
263.172478
263.171799
263.171140
263.170499
263.169876
263.169272
263.168684
263.168113
263.167559
263.167020
263.166497
263.165990
263.165496
263.165018
263.164553
263.164101
263.163663
263.163238
263.162825
263.162424
263.162035
263.161658
263.161291
263.160936
263.160591
263.160256
263.159932
263.159617
263.159311
263.159015
263.158728
263.158449
263.158179
263.157916
263.157662
263.157416
263.157177
263.156945
263.156721
263.156503
263.156292
263.156088
263.155890
263.155697
263.155511
263.155331
263.155156
263.154987
263.154823
263.154664
263.154510
263.154361
263.154217
263.154077
263.153942
263.153811
263.153684
263.153561
263.153442
263.153327
263.153215
263.153107
263.153002
263.152901
263.152803
263.152709
263.152617
263.152528
263.152442
263.152359
263.152279
263.152201
263.152126
263.152053
263.151983
263.151915
263.151849
263.151785
263.151724
263.151664
263.151607
263.151551
263.151497
263.151445
263.151395
263.151346
263.151299
263.151254
263.151210
263.151168
263.151127
263.151087
263.151049
263.151012
263.150976
263.150942
263.150908
263.150876
263.150845
263.150815
263.150786
263.150758
263.150731
263.150705
263.150680
263.150655
263.150632
263.150609
263.150587
263.150566
263.150546
263.150526
263.150507
263.150488
263.150471
263.150454
263.150437
263.150421
263.150406
263.150391
263.150377
263.150363
263.150350
263.150337
263.150324
263.150313
263.150301
263.150290
263.150279
263.150269
263.150259
263.150249
263.150240
263.150231
263.150223
263.150214
263.150206
263.150199
263.150191
263.150184
263.150177
263.150170
263.150164
263.150158
263.150152
263.150146
263.150141
263.150135
263.150130
263.150125
263.150121
263.150116
263.150112
263.150107
263.150103
263.150099
263.150095
263.150092
263.150088
263.150085
263.150082
263.150079
263.150075
263.150073
263.150070
263.150067
263.150064
263.150062
263.150060
263.150057
263.150055
263.150053
263.150051
263.150049
263.150047
263.150045
263.150043
263.150042
263.150040
263.150038
263.150037
263.150036
263.150034
263.150033
263.150031
263.150030
263.150029
263.150028
263.150027
263.150026
263.150025
263.150024
263.150023
263.150022
263.150021
263.150020
263.150019
263.150019
263.150018
263.150017
263.150016
263.150016
263.150015
263.150015
263.150014
263.150013
263.150013
263.150012
263.150012
263.150011
263.150011
263.150010
263.150010
263.150010
263.150009
263.150009
263.150008
263.150008
263.150008
263.150008
263.150007
263.150007
263.150007
263.150006
263.150006
263.150006
263.150006
263.150005
263.150005
263.150005
263.150005
263.150005
263.150004
263.150004
263.150004
263.150004
263.150004
263.150004
263.150003
263.150003
263.150003
263.150003
263.150003
263.150003
263.150003
263.150003
263.150002
263.150002
263.150002
263.150002
263.150002
263.150002
263.150002
263.150002
263.150002
263.150002
263.150002
263.150001
263.150001
263.150001
263.150001
263.150001
263.150001
263.150001
263.150001
263.150001
263.150001
263.150001
263.150001
263.150001
263.150001
263.150001
263.150001
263.150001
263.150001
263.150001
263.150001
263.150001
263.150001
263.150001
263.150001
263.150001
263.150001
263.150000
263.150000
263.150000
263.150000
263.150000
263.150000
263.150000
263.150000
263.150000
263.150000
263.150000
263.150000
263.150000
263.150000
263.150000
263.150000
263.150000
263.150000
263.150000
263.150000
263.150000
263.150000
263.150000
263.150000
263.150000
263.150000
263.150000
263.150000
263.150000
263.150000
263.150000
263.150000
263.150000
263.150000
263.150000
263.150000
263.150000
263.150000
263.150000
263.150000
263.150000
263.150000
263.150000
263.150000
263.150000
263.150000
263.150000
263.150000
263.150000
263.150000
263.150000
263.150000
263.150000
263.150000
263.150000
263.150000
263.150000
263.150000
263.150000
263.150000
263.150000
263.150000
263.150000
263.150000
263.150000
263.150000
263.150000
263.150000
263.150000
263.150000
263.150000
263.150000
263.150000
263.150000
263.150000
263.150000
263.150000
263.150000
263.150000
263.150000
263.150000
263.150000
263.150000
263.150000
263.150000
263.150000
263.150000
263.150000
263.150000
263.150000
263.150000
263.150000
263.150000
263.150000
263.150000
263.150000
263.150000
263.150000
263.150000
263.150000
263.150000
263.150000
263.150000
263.150000
263.150000
263.150000
263.150000
263.150000
263.150000
263.150000
263.150000
263.150000
263.150000
263.150000
263.150000
263.150000
263.150000
263.150000
263.150000
263.150000
263.150000
263.150000
263.150000
263.150000
263.150000
263.150000
263.150000
263.150000
263.150000
263.150000
263.150000
263.150000
263.150000
263.150000
263.150000
263.150000
263.150000
263.150000
263.150000
263.150000
263.150000
263.150000
263.150000
263.150000
263.150000
263.150000
263.150000
263.150000
263.150000
263.150000
263.150000
263.150000
263.150000
263.150000
263.150000
263.150000
263.150000
263.150000
263.150000
263.150000
263.150000
263.150000
263.150000
263.150000
263.150000
263.150000
263.150000
263.150000
263.150000
263.150000
263.150000
263.150000
263.150000
263.150000
263.150000
263.150000
263.150000
263.150000
263.150000
263.150000
263.150000
263.150000
263.150000
263.150000
263.150000
263.150000
263.150000
263.150000
263.150000
263.150000
        </DataArray>
      </PointData>
      <CellData>
      </CellData>
    </Piece>
  </UnstructuredGrid>
</VTKFile>
