<?xml version="1.0"?>
<VTKFile type="UnstructuredGrid" version="0.1" byte_order="LittleEndian">
  <UnstructuredGrid>
    <Piece NumberOfPoints="801" NumberOfCells="800">
      <Points>
        <DataArray type="Float32" NumberOfComponents="3" format="ascii">
0.000000 0.0 0.0
0.005000 0.0 0.0
0.010000 0.0 0.0
0.015000 0.0 0.0
0.020000 0.0 0.0
0.025000 0.0 0.0
0.030000 0.0 0.0
0.035000 0.0 0.0
0.040000 0.0 0.0
0.045000 0.0 0.0
0.050000 0.0 0.0
0.055000 0.0 0.0
0.060000 0.0 0.0
0.065000 0.0 0.0
0.070000 0.0 0.0
0.075000 0.0 0.0
0.080000 0.0 0.0
0.085000 0.0 0.0
0.090000 0.0 0.0
0.095000 0.0 0.0
0.100000 0.0 0.0
0.105000 0.0 0.0
0.110000 0.0 0.0
0.115000 0.0 0.0
0.120000 0.0 0.0
0.125000 0.0 0.0
0.130000 0.0 0.0
0.135000 0.0 0.0
0.140000 0.0 0.0
0.145000 0.0 0.0
0.150000 0.0 0.0
0.155000 0.0 0.0
0.160000 0.0 0.0
0.165000 0.0 0.0
0.170000 0.0 0.0
0.175000 0.0 0.0
0.180000 0.0 0.0
0.185000 0.0 0.0
0.190000 0.0 0.0
0.195000 0.0 0.0
0.200000 0.0 0.0
0.205000 0.0 0.0
0.210000 0.0 0.0
0.215000 0.0 0.0
0.220000 0.0 0.0
0.225000 0.0 0.0
0.230000 0.0 0.0
0.235000 0.0 0.0
0.240000 0.0 0.0
0.245000 0.0 0.0
0.250000 0.0 0.0
0.255000 0.0 0.0
0.260000 0.0 0.0
0.265000 0.0 0.0
0.270000 0.0 0.0
0.275000 0.0 0.0
0.280000 0.0 0.0
0.285000 0.0 0.0
0.290000 0.0 0.0
0.295000 0.0 0.0
0.300000 0.0 0.0
0.305000 0.0 0.0
0.310000 0.0 0.0
0.315000 0.0 0.0
0.320000 0.0 0.0
0.325000 0.0 0.0
0.330000 0.0 0.0
0.335000 0.0 0.0
0.340000 0.0 0.0
0.345000 0.0 0.0
0.350000 0.0 0.0
0.355000 0.0 0.0
0.360000 0.0 0.0
0.365000 0.0 0.0
0.370000 0.0 0.0
0.375000 0.0 0.0
0.380000 0.0 0.0
0.385000 0.0 0.0
0.390000 0.0 0.0
0.395000 0.0 0.0
0.400000 0.0 0.0
0.405000 0.0 0.0
0.410000 0.0 0.0
0.415000 0.0 0.0
0.420000 0.0 0.0
0.425000 0.0 0.0
0.430000 0.0 0.0
0.435000 0.0 0.0
0.440000 0.0 0.0
0.445000 0.0 0.0
0.450000 0.0 0.0
0.455000 0.0 0.0
0.460000 0.0 0.0
0.465000 0.0 0.0
0.470000 0.0 0.0
0.475000 0.0 0.0
0.480000 0.0 0.0
0.485000 0.0 0.0
0.490000 0.0 0.0
0.495000 0.0 0.0
0.500000 0.0 0.0
0.505000 0.0 0.0
0.510000 0.0 0.0
0.515000 0.0 0.0
0.520000 0.0 0.0
0.525000 0.0 0.0
0.530000 0.0 0.0
0.535000 0.0 0.0
0.540000 0.0 0.0
0.545000 0.0 0.0
0.550000 0.0 0.0
0.555000 0.0 0.0
0.560000 0.0 0.0
0.565000 0.0 0.0
0.570000 0.0 0.0
0.575000 0.0 0.0
0.580000 0.0 0.0
0.585000 0.0 0.0
0.590000 0.0 0.0
0.595000 0.0 0.0
0.600000 0.0 0.0
0.605000 0.0 0.0
0.610000 0.0 0.0
0.615000 0.0 0.0
0.620000 0.0 0.0
0.625000 0.0 0.0
0.630000 0.0 0.0
0.635000 0.0 0.0
0.640000 0.0 0.0
0.645000 0.0 0.0
0.650000 0.0 0.0
0.655000 0.0 0.0
0.660000 0.0 0.0
0.665000 0.0 0.0
0.670000 0.0 0.0
0.675000 0.0 0.0
0.680000 0.0 0.0
0.685000 0.0 0.0
0.690000 0.0 0.0
0.695000 0.0 0.0
0.700000 0.0 0.0
0.705000 0.0 0.0
0.710000 0.0 0.0
0.715000 0.0 0.0
0.720000 0.0 0.0
0.725000 0.0 0.0
0.730000 0.0 0.0
0.735000 0.0 0.0
0.740000 0.0 0.0
0.745000 0.0 0.0
0.750000 0.0 0.0
0.755000 0.0 0.0
0.760000 0.0 0.0
0.765000 0.0 0.0
0.770000 0.0 0.0
0.775000 0.0 0.0
0.780000 0.0 0.0
0.785000 0.0 0.0
0.790000 0.0 0.0
0.795000 0.0 0.0
0.800000 0.0 0.0
0.805000 0.0 0.0
0.810000 0.0 0.0
0.815000 0.0 0.0
0.820000 0.0 0.0
0.825000 0.0 0.0
0.830000 0.0 0.0
0.835000 0.0 0.0
0.840000 0.0 0.0
0.845000 0.0 0.0
0.850000 0.0 0.0
0.855000 0.0 0.0
0.860000 0.0 0.0
0.865000 0.0 0.0
0.870000 0.0 0.0
0.875000 0.0 0.0
0.880000 0.0 0.0
0.885000 0.0 0.0
0.890000 0.0 0.0
0.895000 0.0 0.0
0.900000 0.0 0.0
0.905000 0.0 0.0
0.910000 0.0 0.0
0.915000 0.0 0.0
0.920000 0.0 0.0
0.925000 0.0 0.0
0.930000 0.0 0.0
0.935000 0.0 0.0
0.940000 0.0 0.0
0.945000 0.0 0.0
0.950000 0.0 0.0
0.955000 0.0 0.0
0.960000 0.0 0.0
0.965000 0.0 0.0
0.970000 0.0 0.0
0.975000 0.0 0.0
0.980000 0.0 0.0
0.985000 0.0 0.0
0.990000 0.0 0.0
0.995000 0.0 0.0
1.000000 0.0 0.0
1.005000 0.0 0.0
1.010000 0.0 0.0
1.015000 0.0 0.0
1.020000 0.0 0.0
1.025000 0.0 0.0
1.030000 0.0 0.0
1.035000 0.0 0.0
1.040000 0.0 0.0
1.045000 0.0 0.0
1.050000 0.0 0.0
1.055000 0.0 0.0
1.060000 0.0 0.0
1.065000 0.0 0.0
1.070000 0.0 0.0
1.075000 0.0 0.0
1.080000 0.0 0.0
1.085000 0.0 0.0
1.090000 0.0 0.0
1.095000 0.0 0.0
1.100000 0.0 0.0
1.105000 0.0 0.0
1.110000 0.0 0.0
1.115000 0.0 0.0
1.120000 0.0 0.0
1.125000 0.0 0.0
1.130000 0.0 0.0
1.135000 0.0 0.0
1.140000 0.0 0.0
1.145000 0.0 0.0
1.150000 0.0 0.0
1.155000 0.0 0.0
1.160000 0.0 0.0
1.165000 0.0 0.0
1.170000 0.0 0.0
1.175000 0.0 0.0
1.180000 0.0 0.0
1.185000 0.0 0.0
1.190000 0.0 0.0
1.195000 0.0 0.0
1.200000 0.0 0.0
1.205000 0.0 0.0
1.210000 0.0 0.0
1.215000 0.0 0.0
1.220000 0.0 0.0
1.225000 0.0 0.0
1.230000 0.0 0.0
1.235000 0.0 0.0
1.240000 0.0 0.0
1.245000 0.0 0.0
1.250000 0.0 0.0
1.255000 0.0 0.0
1.260000 0.0 0.0
1.265000 0.0 0.0
1.270000 0.0 0.0
1.275000 0.0 0.0
1.280000 0.0 0.0
1.285000 0.0 0.0
1.290000 0.0 0.0
1.295000 0.0 0.0
1.300000 0.0 0.0
1.305000 0.0 0.0
1.310000 0.0 0.0
1.315000 0.0 0.0
1.320000 0.0 0.0
1.325000 0.0 0.0
1.330000 0.0 0.0
1.335000 0.0 0.0
1.340000 0.0 0.0
1.345000 0.0 0.0
1.350000 0.0 0.0
1.355000 0.0 0.0
1.360000 0.0 0.0
1.365000 0.0 0.0
1.370000 0.0 0.0
1.375000 0.0 0.0
1.380000 0.0 0.0
1.385000 0.0 0.0
1.390000 0.0 0.0
1.395000 0.0 0.0
1.400000 0.0 0.0
1.405000 0.0 0.0
1.410000 0.0 0.0
1.415000 0.0 0.0
1.420000 0.0 0.0
1.425000 0.0 0.0
1.430000 0.0 0.0
1.435000 0.0 0.0
1.440000 0.0 0.0
1.445000 0.0 0.0
1.450000 0.0 0.0
1.455000 0.0 0.0
1.460000 0.0 0.0
1.465000 0.0 0.0
1.470000 0.0 0.0
1.475000 0.0 0.0
1.480000 0.0 0.0
1.485000 0.0 0.0
1.490000 0.0 0.0
1.495000 0.0 0.0
1.500000 0.0 0.0
1.505000 0.0 0.0
1.510000 0.0 0.0
1.515000 0.0 0.0
1.520000 0.0 0.0
1.525000 0.0 0.0
1.530000 0.0 0.0
1.535000 0.0 0.0
1.540000 0.0 0.0
1.545000 0.0 0.0
1.550000 0.0 0.0
1.555000 0.0 0.0
1.560000 0.0 0.0
1.565000 0.0 0.0
1.570000 0.0 0.0
1.575000 0.0 0.0
1.580000 0.0 0.0
1.585000 0.0 0.0
1.590000 0.0 0.0
1.595000 0.0 0.0
1.600000 0.0 0.0
1.605000 0.0 0.0
1.610000 0.0 0.0
1.615000 0.0 0.0
1.620000 0.0 0.0
1.625000 0.0 0.0
1.630000 0.0 0.0
1.635000 0.0 0.0
1.640000 0.0 0.0
1.645000 0.0 0.0
1.650000 0.0 0.0
1.655000 0.0 0.0
1.660000 0.0 0.0
1.665000 0.0 0.0
1.670000 0.0 0.0
1.675000 0.0 0.0
1.680000 0.0 0.0
1.685000 0.0 0.0
1.690000 0.0 0.0
1.695000 0.0 0.0
1.700000 0.0 0.0
1.705000 0.0 0.0
1.710000 0.0 0.0
1.715000 0.0 0.0
1.720000 0.0 0.0
1.725000 0.0 0.0
1.730000 0.0 0.0
1.735000 0.0 0.0
1.740000 0.0 0.0
1.745000 0.0 0.0
1.750000 0.0 0.0
1.755000 0.0 0.0
1.760000 0.0 0.0
1.765000 0.0 0.0
1.770000 0.0 0.0
1.775000 0.0 0.0
1.780000 0.0 0.0
1.785000 0.0 0.0
1.790000 0.0 0.0
1.795000 0.0 0.0
1.800000 0.0 0.0
1.805000 0.0 0.0
1.810000 0.0 0.0
1.815000 0.0 0.0
1.820000 0.0 0.0
1.825000 0.0 0.0
1.830000 0.0 0.0
1.835000 0.0 0.0
1.840000 0.0 0.0
1.845000 0.0 0.0
1.850000 0.0 0.0
1.855000 0.0 0.0
1.860000 0.0 0.0
1.865000 0.0 0.0
1.870000 0.0 0.0
1.875000 0.0 0.0
1.880000 0.0 0.0
1.885000 0.0 0.0
1.890000 0.0 0.0
1.895000 0.0 0.0
1.900000 0.0 0.0
1.905000 0.0 0.0
1.910000 0.0 0.0
1.915000 0.0 0.0
1.920000 0.0 0.0
1.925000 0.0 0.0
1.930000 0.0 0.0
1.935000 0.0 0.0
1.940000 0.0 0.0
1.945000 0.0 0.0
1.950000 0.0 0.0
1.955000 0.0 0.0
1.960000 0.0 0.0
1.965000 0.0 0.0
1.970000 0.0 0.0
1.975000 0.0 0.0
1.980000 0.0 0.0
1.985000 0.0 0.0
1.990000 0.0 0.0
1.995000 0.0 0.0
2.000000 0.0 0.0
2.005000 0.0 0.0
2.010000 0.0 0.0
2.015000 0.0 0.0
2.020000 0.0 0.0
2.025000 0.0 0.0
2.030000 0.0 0.0
2.035000 0.0 0.0
2.040000 0.0 0.0
2.045000 0.0 0.0
2.050000 0.0 0.0
2.055000 0.0 0.0
2.060000 0.0 0.0
2.065000 0.0 0.0
2.070000 0.0 0.0
2.075000 0.0 0.0
2.080000 0.0 0.0
2.085000 0.0 0.0
2.090000 0.0 0.0
2.095000 0.0 0.0
2.100000 0.0 0.0
2.105000 0.0 0.0
2.110000 0.0 0.0
2.115000 0.0 0.0
2.120000 0.0 0.0
2.125000 0.0 0.0
2.130000 0.0 0.0
2.135000 0.0 0.0
2.140000 0.0 0.0
2.145000 0.0 0.0
2.150000 0.0 0.0
2.155000 0.0 0.0
2.160000 0.0 0.0
2.165000 0.0 0.0
2.170000 0.0 0.0
2.175000 0.0 0.0
2.180000 0.0 0.0
2.185000 0.0 0.0
2.190000 0.0 0.0
2.195000 0.0 0.0
2.200000 0.0 0.0
2.205000 0.0 0.0
2.210000 0.0 0.0
2.215000 0.0 0.0
2.220000 0.0 0.0
2.225000 0.0 0.0
2.230000 0.0 0.0
2.235000 0.0 0.0
2.240000 0.0 0.0
2.245000 0.0 0.0
2.250000 0.0 0.0
2.255000 0.0 0.0
2.260000 0.0 0.0
2.265000 0.0 0.0
2.270000 0.0 0.0
2.275000 0.0 0.0
2.280000 0.0 0.0
2.285000 0.0 0.0
2.290000 0.0 0.0
2.295000 0.0 0.0
2.300000 0.0 0.0
2.305000 0.0 0.0
2.310000 0.0 0.0
2.315000 0.0 0.0
2.320000 0.0 0.0
2.325000 0.0 0.0
2.330000 0.0 0.0
2.335000 0.0 0.0
2.340000 0.0 0.0
2.345000 0.0 0.0
2.350000 0.0 0.0
2.355000 0.0 0.0
2.360000 0.0 0.0
2.365000 0.0 0.0
2.370000 0.0 0.0
2.375000 0.0 0.0
2.380000 0.0 0.0
2.385000 0.0 0.0
2.390000 0.0 0.0
2.395000 0.0 0.0
2.400000 0.0 0.0
2.405000 0.0 0.0
2.410000 0.0 0.0
2.415000 0.0 0.0
2.420000 0.0 0.0
2.425000 0.0 0.0
2.430000 0.0 0.0
2.435000 0.0 0.0
2.440000 0.0 0.0
2.445000 0.0 0.0
2.450000 0.0 0.0
2.455000 0.0 0.0
2.460000 0.0 0.0
2.465000 0.0 0.0
2.470000 0.0 0.0
2.475000 0.0 0.0
2.480000 0.0 0.0
2.485000 0.0 0.0
2.490000 0.0 0.0
2.495000 0.0 0.0
2.500000 0.0 0.0
2.505000 0.0 0.0
2.510000 0.0 0.0
2.515000 0.0 0.0
2.520000 0.0 0.0
2.525000 0.0 0.0
2.530000 0.0 0.0
2.535000 0.0 0.0
2.540000 0.0 0.0
2.545000 0.0 0.0
2.550000 0.0 0.0
2.555000 0.0 0.0
2.560000 0.0 0.0
2.565000 0.0 0.0
2.570000 0.0 0.0
2.575000 0.0 0.0
2.580000 0.0 0.0
2.585000 0.0 0.0
2.590000 0.0 0.0
2.595000 0.0 0.0
2.600000 0.0 0.0
2.605000 0.0 0.0
2.610000 0.0 0.0
2.615000 0.0 0.0
2.620000 0.0 0.0
2.625000 0.0 0.0
2.630000 0.0 0.0
2.635000 0.0 0.0
2.640000 0.0 0.0
2.645000 0.0 0.0
2.650000 0.0 0.0
2.655000 0.0 0.0
2.660000 0.0 0.0
2.665000 0.0 0.0
2.670000 0.0 0.0
2.675000 0.0 0.0
2.680000 0.0 0.0
2.685000 0.0 0.0
2.690000 0.0 0.0
2.695000 0.0 0.0
2.700000 0.0 0.0
2.705000 0.0 0.0
2.710000 0.0 0.0
2.715000 0.0 0.0
2.720000 0.0 0.0
2.725000 0.0 0.0
2.730000 0.0 0.0
2.735000 0.0 0.0
2.740000 0.0 0.0
2.745000 0.0 0.0
2.750000 0.0 0.0
2.755000 0.0 0.0
2.760000 0.0 0.0
2.765000 0.0 0.0
2.770000 0.0 0.0
2.775000 0.0 0.0
2.780000 0.0 0.0
2.785000 0.0 0.0
2.790000 0.0 0.0
2.795000 0.0 0.0
2.800000 0.0 0.0
2.805000 0.0 0.0
2.810000 0.0 0.0
2.815000 0.0 0.0
2.820000 0.0 0.0
2.825000 0.0 0.0
2.830000 0.0 0.0
2.835000 0.0 0.0
2.840000 0.0 0.0
2.845000 0.0 0.0
2.850000 0.0 0.0
2.855000 0.0 0.0
2.860000 0.0 0.0
[...]
      <PointData Scalars="Temperature">
        <DataArray type="Float32" Name="Temperature" format="ascii">
308.150000
307.111554
306.073365
305.035688
303.998781
302.962899
301.928297
300.895228
299.863945
298.834700
297.807744
296.783324
295.761688
294.743080
293.727742
292.715917
291.707840
290.703748
289.703873
288.708445
287.717691
286.731833
285.751091
284.775681
283.805814
282.841700
281.883539
280.931532
279.985870
279.046741
278.114326
277.188798
276.270324
275.359083
274.457181
273.651349
273.236458
273.037089
272.908044
272.809051
272.725967
272.652448
272.585161
272.522159
272.462218
272.404524
272.348519
272.293803
272.240088
272.187158
272.134854
272.083053
272.031663
271.980612
271.929846
271.879322
271.829008
271.778878
271.728913
271.679097
271.629419
271.579871
271.530445
271.481138
271.431944
271.382862
271.333891
271.285028
271.236274
271.187628
271.139091
271.090663
271.042344
270.994136
270.946039
270.898054
270.850182
270.802424
270.754782
270.707256
270.659849
270.612560
270.565391
270.518344
270.471419
270.424618
270.377942
270.331392
270.284969
270.238675
270.192511
270.146477
270.100576
270.054808
270.009174
269.963675
269.918313
269.873089
269.828003
269.783057
269.738252
269.693589
269.649069
269.604693
269.560462
269.516377
269.472438
269.428648
269.385007
269.341515
269.298174
269.254985
269.211949
269.169066
269.126337
269.083764
269.041346
268.999086
268.956983
268.915039
268.873255
268.831630
268.790167
268.748865
268.707725
268.666749
268.625937
268.585289
268.544806
268.504490
268.464340
268.424357
268.384543
268.344896
268.305419
268.266112
268.226975
268.188009
268.149214
268.110591
268.072140
268.033863
267.995759
267.957829
267.920073
267.882493
267.845087
267.807858
267.770804
267.733927
267.697227
267.660704
267.624359
267.588192
267.552204
267.516394
267.480763
267.445311
267.410038
267.374946
267.340034
267.305301
267.270750
267.236379
267.202189
267.168180
267.134352
267.100706
267.067241
267.033958
267.000857
266.967937
266.935200
266.902645
266.870272
266.838081
266.806072
266.774246
266.742602
266.711140
266.679860
266.648763
266.617848
266.587116
266.556565
266.526197
266.496010
266.466005
266.436183
266.406541
266.377082
266.347804
266.318707
266.289791
266.261056
266.232502
266.204129
266.175936
266.147923
266.120090
266.092437
266.064963
266.037668
266.010553
265.983616
265.956857
265.930276
265.903873
265.877648
265.851600
265.825728
265.800033
265.774514
265.749171
265.724003
265.699010
265.674191
265.649547
265.625076
265.600779
265.576655
265.552703
265.528923
265.505315
265.481878
265.458611
265.435515
265.412588
265.389831
265.367242
265.344822
265.322569
265.300483
265.278564
265.256811
265.235223
265.213800
265.192542
265.171448
265.150517
265.129749
265.109143
265.088698
265.068414
265.048291
265.028327
265.008523
264.988877
264.969389
264.950058
264.930884
264.911865
264.893002
264.874294
264.855740
264.837339
264.819091
264.800995
264.783050
264.765255
264.747611
264.730116
264.712770
264.695571
264.678520
264.661615
264.644856
264.628243
264.611773
264.595447
264.579264
264.563223
264.547324
264.531566
264.515947
264.500468
264.485127
264.469924
264.454859
264.439929
264.425135
264.410476
264.395951
264.381559
264.367300
264.353172
264.339176
264.325310
264.311573
264.297965
264.284485
264.271132
264.257906
264.244805
264.231829
264.218978
264.206250
264.193644
264.181160
264.168797
264.156555
264.144432
264.132427
264.120541
264.108772
264.097119
264.085581
264.074159
264.062851
264.051656
264.040573
264.029602
264.018742
264.007993
263.997353
263.986821
263.976397
263.966081
263.955871
263.945766
263.935766
263.925870
263.916078
263.906388
263.896799
263.887312
263.877925
263.868637
263.859448
263.850358
263.841364
263.832467
263.823665
263.814958
263.806346
263.797827
263.789401
263.781067
263.772824
263.764671
263.756608
263.748635
263.740749
263.732952
263.725241
263.717616
263.710077
263.702622
263.695251
263.687964
263.680759
263.673636
263.666595
263.659633
263.652752
263.645949
263.639225
263.632579
263.626009
263.619516
263.613098
263.606756
263.600488
263.594293
263.588171
263.582122
263.576144
263.570237
263.564400
263.558633
263.552935
263.547306
263.541744
263.536249
263.530821
263.525458
263.520160
263.514927
263.509759
263.504653
263.499610
263.494629
263.489709
263.484851
263.480053
263.475314
263.470634
263.466013
263.461450
263.456944
263.452495
263.448102
263.443765
263.439482
263.435254
263.431080
263.426960
263.422892
263.418876
263.414912
263.411000
263.407137
263.403325
263.399563
263.395849
263.392184
263.388567
263.384998
263.381475
263.377999
263.374569
263.371184
263.367844
263.364549
263.361297
263.358089
263.354924
263.351802
263.348721
263.345683
263.342685
263.339728
263.336811
263.333933
263.331096
263.328296
263.325536
263.322813
263.320128
263.317479
263.314868
263.312292
263.309753
263.307248
263.304779
263.302344
263.299944
263.297577
263.295243
263.292943
263.290675
263.288439
263.286234
263.284062
263.281920
263.279808
263.277727
263.275676
263.273655
263.271662
263.269699
263.267763
263.265856
263.263977
263.262125
263.260300
263.258501
263.256729
263.254983
263.253263
263.251568
263.249898
263.248253
263.246633
263.245036
263.243463
263.241914
263.240388
263.238885
263.237404
263.235946
263.234509
263.233095
263.231702
263.230329
263.228978
263.227648
263.226337
263.225047
263.223777
263.222526
263.221294
263.220081
263.218887
263.217712
263.216554
263.215415
263.214293
263.213189
263.212102
263.211032
263.209979
263.208943
263.207923
263.206919
263.205930
263.204958
263.204001
263.203059
263.202132
263.201220
263.200322
263.199439
263.198570
263.197715
263.196873
263.196046
263.195231
263.194430
263.193642
263.192867
263.192104
263.191354
263.190616
263.189890
263.189176
263.188473
263.187783
263.187103
263.186435
263.185778
263.185132
263.184496
263.183871
263.183257
263.182653
263.182059
263.181474
263.180900
263.180335
263.179780
263.179234
263.178698
263.178170
263.177652
263.177142
263.176641
263.176148
263.175664
263.175188
263.174720
263.174261
263.173809
263.173365
263.172929
263.172500
263.172078
263.171664
263.171258
263.170858
263.170465
263.170079
263.169700
263.169327
263.168961
263.168601
263.168248
263.167901
263.167560
263.167225
263.166896
263.166573
263.166256
263.165944
263.165638
263.165337
263.165042
263.164751
263.164467
263.164187
263.163912
263.163642
263.163378
263.163117
263.162862
263.162611
263.162365
263.162123
263.161886
263.161653
263.161424
263.161200
263.160980
263.160763
263.160551
263.160342
263.160138
263.159937
263.159740
263.159546
263.159357
263.159170
263.158987
263.158808
263.158632
263.158459
263.158289
263.158123
263.157960
263.157800
263.157642
263.157488
263.157337
263.157189
263.157043
263.156900
263.156760
263.156623
263.156488
263.156356
263.156226
263.156099
263.155974
263.155851
263.155731
263.155614
263.155498
263.155385
263.155274
263.155165
263.155058
263.154954
263.154851
263.154750
263.154652
263.154555
263.154460
263.154367
263.154276
263.154186
263.154099
263.154013
263.153929
263.153846
263.153765
263.153686
263.153608
263.153532
263.153457
263.153384
263.153312
263.153242
263.153173
263.153106
263.153040
263.152975
263.152911
263.152849
263.152788
263.152728
263.152670
263.152612
263.152556
263.152501
263.152447
263.152394
263.152343
263.152292
263.152242
263.152194
263.152146
263.152099
263.152054
263.152009
263.151965
263.151922
263.151880
263.151839
263.151798
263.151759
263.151720
263.151682
263.151645
263.151609
263.151573
263.151538
263.151504
263.151471
263.151438
263.151406
263.151375
263.151344
263.151314
263.151284
263.151256
263.151227
263.151200
263.151173
263.151146
263.151120
263.151095
263.151070
263.151046
263.151022
263.150999
263.150976
263.150954
263.150932
263.150911
263.150890
263.150869
263.150849
263.150830
263.150811
263.150792
263.150773
263.150755
263.150738
263.150721
263.150704
263.150687
263.150671
263.150655
263.150640
263.150625
263.150610
263.150595
263.150581
263.150567
263.150554
263.150540
263.150527
263.150515
263.150502
263.150490
263.150478
263.150466
263.150455
263.150444
263.150433
263.150422
263.150411
263.150401
263.150391
263.150381
263.150371
263.150362
263.150353
263.150344
263.150335
263.150326
263.150317
263.150309
263.150301
263.150293
263.150285
263.150277
263.150270
263.150262
263.150255
263.150248
263.150241
263.150234
263.150227
263.150221
263.150214
263.150208
263.150201
263.150195
263.150189
263.150183
263.150177
263.150172
263.150166
263.150160
263.150155
263.150150
263.150144
263.150139
263.150134
263.150129
263.150124
263.150119
263.150114
263.150110
263.150105
263.150100
263.150096
263.150091
263.150087
263.150082
263.150078
263.150073
263.150069
263.150065
263.150061
263.150056
263.150052
263.150048
263.150044
263.150040
263.150036
263.150032
263.150028
263.150024
263.150020
263.150016
263.150012
263.150008
263.150004
263.150000
        </DataArray>
      </PointData>
      <CellData>
      </CellData>
    </Piece>
  </UnstructuredGrid>
</VTKFile>
