<?xml version="1.0"?>
<VTKFile type="UnstructuredGrid" version="0.1" byte_order="LittleEndian">
  <UnstructuredGrid>
    <Piece NumberOfPoints="801" NumberOfCells="800">
      <Points>
        <DataArray type="Float32" NumberOfComponents="3" format="ascii">
0.000000 0.0 0.0
0.005000 0.0 0.0
0.010000 0.0 0.0
0.015000 0.0 0.0
0.020000 0.0 0.0
0.025000 0.0 0.0
0.030000 0.0 0.0
0.035000 0.0 0.0
0.040000 0.0 0.0
0.045000 0.0 0.0
0.050000 0.0 0.0
0.055000 0.0 0.0
0.060000 0.0 0.0
0.065000 0.0 0.0
0.070000 0.0 0.0
0.075000 0.0 0.0
0.080000 0.0 0.0
0.085000 0.0 0.0
0.090000 0.0 0.0
0.095000 0.0 0.0
0.100000 0.0 0.0
0.105000 0.0 0.0
0.110000 0.0 0.0
0.115000 0.0 0.0
0.120000 0.0 0.0
0.125000 0.0 0.0
0.130000 0.0 0.0
0.135000 0.0 0.0
0.140000 0.0 0.0
0.145000 0.0 0.0
0.150000 0.0 0.0
0.155000 0.0 0.0
0.160000 0.0 0.0
0.165000 0.0 0.0
0.170000 0.0 0.0
0.175000 0.0 0.0
0.180000 0.0 0.0
0.185000 0.0 0.0
0.190000 0.0 0.0
0.195000 0.0 0.0
0.200000 0.0 0.0
0.205000 0.0 0.0
0.210000 0.0 0.0
0.215000 0.0 0.0
0.220000 0.0 0.0
0.225000 0.0 0.0
0.230000 0.0 0.0
0.235000 0.0 0.0
0.240000 0.0 0.0
0.245000 0.0 0.0
0.250000 0.0 0.0
0.255000 0.0 0.0
0.260000 0.0 0.0
0.265000 0.0 0.0
0.270000 0.0 0.0
0.275000 0.0 0.0
0.280000 0.0 0.0
0.285000 0.0 0.0
0.290000 0.0 0.0
0.295000 0.0 0.0
0.300000 0.0 0.0
0.305000 0.0 0.0
0.310000 0.0 0.0
0.315000 0.0 0.0
0.320000 0.0 0.0
0.325000 0.0 0.0
0.330000 0.0 0.0
0.335000 0.0 0.0
0.340000 0.0 0.0
0.345000 0.0 0.0
0.350000 0.0 0.0
0.355000 0.0 0.0
0.360000 0.0 0.0
0.365000 0.0 0.0
0.370000 0.0 0.0
0.375000 0.0 0.0
0.380000 0.0 0.0
0.385000 0.0 0.0
0.390000 0.0 0.0
0.395000 0.0 0.0
0.400000 0.0 0.0
0.405000 0.0 0.0
0.410000 0.0 0.0
0.415000 0.0 0.0
0.420000 0.0 0.0
0.425000 0.0 0.0
0.430000 0.0 0.0
0.435000 0.0 0.0
0.440000 0.0 0.0
0.445000 0.0 0.0
0.450000 0.0 0.0
0.455000 0.0 0.0
0.460000 0.0 0.0
0.465000 0.0 0.0
0.470000 0.0 0.0
0.475000 0.0 0.0
0.480000 0.0 0.0
0.485000 0.0 0.0
0.490000 0.0 0.0
0.495000 0.0 0.0
0.500000 0.0 0.0
0.505000 0.0 0.0
0.510000 0.0 0.0
0.515000 0.0 0.0
0.520000 0.0 0.0
0.525000 0.0 0.0
0.530000 0.0 0.0
0.535000 0.0 0.0
0.540000 0.0 0.0
0.545000 0.0 0.0
0.550000 0.0 0.0
0.555000 0.0 0.0
0.560000 0.0 0.0
0.565000 0.0 0.0
0.570000 0.0 0.0
0.575000 0.0 0.0
0.580000 0.0 0.0
0.585000 0.0 0.0
0.590000 0.0 0.0
0.595000 0.0 0.0
0.600000 0.0 0.0
0.605000 0.0 0.0
0.610000 0.0 0.0
0.615000 0.0 0.0
0.620000 0.0 0.0
0.625000 0.0 0.0
0.630000 0.0 0.0
0.635000 0.0 0.0
0.640000 0.0 0.0
0.645000 0.0 0.0
0.650000 0.0 0.0
0.655000 0.0 0.0
0.660000 0.0 0.0
0.665000 0.0 0.0
0.670000 0.0 0.0
0.675000 0.0 0.0
0.680000 0.0 0.0
0.685000 0.0 0.0
0.690000 0.0 0.0
0.695000 0.0 0.0
0.700000 0.0 0.0
0.705000 0.0 0.0
0.710000 0.0 0.0
0.715000 0.0 0.0
0.720000 0.0 0.0
0.725000 0.0 0.0
0.730000 0.0 0.0
0.735000 0.0 0.0
0.740000 0.0 0.0
0.745000 0.0 0.0
0.750000 0.0 0.0
0.755000 0.0 0.0
0.760000 0.0 0.0
0.765000 0.0 0.0
0.770000 0.0 0.0
0.775000 0.0 0.0
0.780000 0.0 0.0
0.785000 0.0 0.0
0.790000 0.0 0.0
0.795000 0.0 0.0
0.800000 0.0 0.0
0.805000 0.0 0.0
0.810000 0.0 0.0
0.815000 0.0 0.0
0.820000 0.0 0.0
0.825000 0.0 0.0
0.830000 0.0 0.0
0.835000 0.0 0.0
0.840000 0.0 0.0
0.845000 0.0 0.0
0.850000 0.0 0.0
0.855000 0.0 0.0
0.860000 0.0 0.0
0.865000 0.0 0.0
0.870000 0.0 0.0
0.875000 0.0 0.0
0.880000 0.0 0.0
0.885000 0.0 0.0
0.890000 0.0 0.0
0.895000 0.0 0.0
0.900000 0.0 0.0
0.905000 0.0 0.0
0.910000 0.0 0.0
0.915000 0.0 0.0
0.920000 0.0 0.0
0.925000 0.0 0.0
0.930000 0.0 0.0
0.935000 0.0 0.0
0.940000 0.0 0.0
0.945000 0.0 0.0
0.950000 0.0 0.0
0.955000 0.0 0.0
0.960000 0.0 0.0
0.965000 0.0 0.0
0.970000 0.0 0.0
0.975000 0.0 0.0
0.980000 0.0 0.0
0.985000 0.0 0.0
0.990000 0.0 0.0
0.995000 0.0 0.0
1.000000 0.0 0.0
1.005000 0.0 0.0
1.010000 0.0 0.0
1.015000 0.0 0.0
1.020000 0.0 0.0
1.025000 0.0 0.0
1.030000 0.0 0.0
1.035000 0.0 0.0
1.040000 0.0 0.0
1.045000 0.0 0.0
1.050000 0.0 0.0
1.055000 0.0 0.0
1.060000 0.0 0.0
1.065000 0.0 0.0
1.070000 0.0 0.0
1.075000 0.0 0.0
1.080000 0.0 0.0
1.085000 0.0 0.0
1.090000 0.0 0.0
1.095000 0.0 0.0
1.100000 0.0 0.0
1.105000 0.0 0.0
1.110000 0.0 0.0
1.115000 0.0 0.0
1.120000 0.0 0.0
1.125000 0.0 0.0
1.130000 0.0 0.0
1.135000 0.0 0.0
1.140000 0.0 0.0
1.145000 0.0 0.0
1.150000 0.0 0.0
1.155000 0.0 0.0
1.160000 0.0 0.0
1.165000 0.0 0.0
1.170000 0.0 0.0
1.175000 0.0 0.0
1.180000 0.0 0.0
1.185000 0.0 0.0
1.190000 0.0 0.0
1.195000 0.0 0.0
1.200000 0.0 0.0
1.205000 0.0 0.0
1.210000 0.0 0.0
1.215000 0.0 0.0
1.220000 0.0 0.0
1.225000 0.0 0.0
1.230000 0.0 0.0
1.235000 0.0 0.0
1.240000 0.0 0.0
1.245000 0.0 0.0
1.250000 0.0 0.0
1.255000 0.0 0.0
1.260000 0.0 0.0
1.265000 0.0 0.0
1.270000 0.0 0.0
1.275000 0.0 0.0
1.280000 0.0 0.0
1.285000 0.0 0.0
1.290000 0.0 0.0
1.295000 0.0 0.0
1.300000 0.0 0.0
1.305000 0.0 0.0
1.310000 0.0 0.0
1.315000 0.0 0.0
1.320000 0.0 0.0
1.325000 0.0 0.0
1.330000 0.0 0.0
1.335000 0.0 0.0
1.340000 0.0 0.0
1.345000 0.0 0.0
1.350000 0.0 0.0
1.355000 0.0 0.0
1.360000 0.0 0.0
1.365000 0.0 0.0
1.370000 0.0 0.0
1.375000 0.0 0.0
1.380000 0.0 0.0
1.385000 0.0 0.0
1.390000 0.0 0.0
1.395000 0.0 0.0
1.400000 0.0 0.0
1.405000 0.0 0.0
1.410000 0.0 0.0
1.415000 0.0 0.0
1.420000 0.0 0.0
1.425000 0.0 0.0
1.430000 0.0 0.0
1.435000 0.0 0.0
1.440000 0.0 0.0
1.445000 0.0 0.0
1.450000 0.0 0.0
1.455000 0.0 0.0
1.460000 0.0 0.0
1.465000 0.0 0.0
1.470000 0.0 0.0
1.475000 0.0 0.0
1.480000 0.0 0.0
1.485000 0.0 0.0
1.490000 0.0 0.0
1.495000 0.0 0.0
1.500000 0.0 0.0
1.505000 0.0 0.0
1.510000 0.0 0.0
1.515000 0.0 0.0
1.520000 0.0 0.0
1.525000 0.0 0.0
1.530000 0.0 0.0
1.535000 0.0 0.0
1.540000 0.0 0.0
1.545000 0.0 0.0
1.550000 0.0 0.0
1.555000 0.0 0.0
1.560000 0.0 0.0
1.565000 0.0 0.0
1.570000 0.0 0.0
1.575000 0.0 0.0
1.580000 0.0 0.0
1.585000 0.0 0.0
1.590000 0.0 0.0
1.595000 0.0 0.0
1.600000 0.0 0.0
1.605000 0.0 0.0
1.610000 0.0 0.0
1.615000 0.0 0.0
1.620000 0.0 0.0
1.625000 0.0 0.0
1.630000 0.0 0.0
1.635000 0.0 0.0
1.640000 0.0 0.0
1.645000 0.0 0.0
1.650000 0.0 0.0
1.655000 0.0 0.0
1.660000 0.0 0.0
1.665000 0.0 0.0
1.670000 0.0 0.0
1.675000 0.0 0.0
1.680000 0.0 0.0
1.685000 0.0 0.0
1.690000 0.0 0.0
1.695000 0.0 0.0
1.700000 0.0 0.0
1.705000 0.0 0.0
1.710000 0.0 0.0
1.715000 0.0 0.0
1.720000 0.0 0.0
1.725000 0.0 0.0
1.730000 0.0 0.0
1.735000 0.0 0.0
1.740000 0.0 0.0
1.745000 0.0 0.0
1.750000 0.0 0.0
1.755000 0.0 0.0
1.760000 0.0 0.0
1.765000 0.0 0.0
1.770000 0.0 0.0
1.775000 0.0 0.0
1.780000 0.0 0.0
1.785000 0.0 0.0
1.790000 0.0 0.0
1.795000 0.0 0.0
1.800000 0.0 0.0
1.805000 0.0 0.0
1.810000 0.0 0.0
1.815000 0.0 0.0
1.820000 0.0 0.0
1.825000 0.0 0.0
1.830000 0.0 0.0
1.835000 0.0 0.0
1.840000 0.0 0.0
1.845000 0.0 0.0
1.850000 0.0 0.0
1.855000 0.0 0.0
1.860000 0.0 0.0
1.865000 0.0 0.0
1.870000 0.0 0.0
1.875000 0.0 0.0
1.880000 0.0 0.0
1.885000 0.0 0.0
1.890000 0.0 0.0
1.895000 0.0 0.0
1.900000 0.0 0.0
1.905000 0.0 0.0
1.910000 0.0 0.0
1.915000 0.0 0.0
1.920000 0.0 0.0
1.925000 0.0 0.0
1.930000 0.0 0.0
1.935000 0.0 0.0
1.940000 0.0 0.0
1.945000 0.0 0.0
1.950000 0.0 0.0
1.955000 0.0 0.0
1.960000 0.0 0.0
1.965000 0.0 0.0
1.970000 0.0 0.0
1.975000 0.0 0.0
1.980000 0.0 0.0
1.985000 0.0 0.0
1.990000 0.0 0.0
1.995000 0.0 0.0
2.000000 0.0 0.0
2.005000 0.0 0.0
2.010000 0.0 0.0
2.015000 0.0 0.0
2.020000 0.0 0.0
2.025000 0.0 0.0
2.030000 0.0 0.0
2.035000 0.0 0.0
2.040000 0.0 0.0
2.045000 0.0 0.0
2.050000 0.0 0.0
2.055000 0.0 0.0
2.060000 0.0 0.0
2.065000 0.0 0.0
2.070000 0.0 0.0
2.075000 0.0 0.0
2.080000 0.0 0.0
2.085000 0.0 0.0
2.090000 0.0 0.0
2.095000 0.0 0.0
2.100000 0.0 0.0
2.105000 0.0 0.0
2.110000 0.0 0.0
2.115000 0.0 0.0
2.120000 0.0 0.0
2.125000 0.0 0.0
2.130000 0.0 0.0
2.135000 0.0 0.0
2.140000 0.0 0.0
2.145000 0.0 0.0
2.150000 0.0 0.0
2.155000 0.0 0.0
2.160000 0.0 0.0
2.165000 0.0 0.0
2.170000 0.0 0.0
2.175000 0.0 0.0
2.180000 0.0 0.0
2.185000 0.0 0.0
2.190000 0.0 0.0
2.195000 0.0 0.0
2.200000 0.0 0.0
2.205000 0.0 0.0
2.210000 0.0 0.0
2.215000 0.0 0.0
2.220000 0.0 0.0
2.225000 0.0 0.0
2.230000 0.0 0.0
2.235000 0.0 0.0
2.240000 0.0 0.0
2.245000 0.0 0.0
2.250000 0.0 0.0
2.255000 0.0 0.0
2.260000 0.0 0.0
2.265000 0.0 0.0
2.270000 0.0 0.0
2.275000 0.0 0.0
2.280000 0.0 0.0
2.285000 0.0 0.0
2.290000 0.0 0.0
2.295000 0.0 0.0
2.300000 0.0 0.0
2.305000 0.0 0.0
2.310000 0.0 0.0
2.315000 0.0 0.0
2.320000 0.0 0.0
2.325000 0.0 0.0
2.330000 0.0 0.0
2.335000 0.0 0.0
2.340000 0.0 0.0
2.345000 0.0 0.0
2.350000 0.0 0.0
2.355000 0.0 0.0
2.360000 0.0 0.0
2.365000 0.0 0.0
2.370000 0.0 0.0
2.375000 0.0 0.0
2.380000 0.0 0.0
2.385000 0.0 0.0
2.390000 0.0 0.0
2.395000 0.0 0.0
2.400000 0.0 0.0
2.405000 0.0 0.0
2.410000 0.0 0.0
2.415000 0.0 0.0
2.420000 0.0 0.0
2.425000 0.0 0.0
2.430000 0.0 0.0
2.435000 0.0 0.0
2.440000 0.0 0.0
2.445000 0.0 0.0
2.450000 0.0 0.0
2.455000 0.0 0.0
2.460000 0.0 0.0
2.465000 0.0 0.0
2.470000 0.0 0.0
2.475000 0.0 0.0
2.480000 0.0 0.0
2.485000 0.0 0.0
2.490000 0.0 0.0
2.495000 0.0 0.0
2.500000 0.0 0.0
2.505000 0.0 0.0
2.510000 0.0 0.0
2.515000 0.0 0.0
2.520000 0.0 0.0
2.525000 0.0 0.0
2.530000 0.0 0.0
2.535000 0.0 0.0
2.540000 0.0 0.0
2.545000 0.0 0.0
2.550000 0.0 0.0
2.555000 0.0 0.0
2.560000 0.0 0.0
2.565000 0.0 0.0
2.570000 0.0 0.0
2.575000 0.0 0.0
2.580000 0.0 0.0
2.585000 0.0 0.0
2.590000 0.0 0.0
2.595000 0.0 0.0
2.600000 0.0 0.0
2.605000 0.0 0.0
2.610000 0.0 0.0
2.615000 0.0 0.0
2.620000 0.0 0.0
2.625000 0.0 0.0
2.630000 0.0 0.0
2.635000 0.0 0.0
2.640000 0.0 0.0
2.645000 0.0 0.0
2.650000 0.0 0.0
2.655000 0.0 0.0
2.660000 0.0 0.0
2.665000 0.0 0.0
2.670000 0.0 0.0
2.675000 0.0 0.0
2.680000 0.0 0.0
2.685000 0.0 0.0
2.690000 0.0 0.0
2.695000 0.0 0.0
2.700000 0.0 0.0
2.705000 0.0 0.0
2.710000 0.0 0.0
2.715000 0.0 0.0
2.720000 0.0 0.0
2.725000 0.0 0.0
2.730000 0.0 0.0
2.735000 0.0 0.0
2.740000 0.0 0.0
2.745000 0.0 0.0
2.750000 0.0 0.0
2.755000 0.0 0.0
2.760000 0.0 0.0
2.765000 0.0 0.0
2.770000 0.0 0.0
2.775000 0.0 0.0
2.780000 0.0 0.0
2.785000 0.0 0.0
2.790000 0.0 0.0
2.795000 0.0 0.0
2.800000 0.0 0.0
2.805000 0.0 0.0
2.810000 0.0 0.0
2.815000 0.0 0.0
2.820000 0.0 0.0
2.825000 0.0 0.0
2.830000 0.0 0.0
2.835000 0.0 0.0
2.840000 0.0 0.0
2.845000 0.0 0.0
2.850000 0.0 0.0
2.855000 0.0 0.0
2.860000 0.0 0.0
[...]
      <PointData Scalars="Temperature">
        <DataArray type="Float32" Name="Temperature" format="ascii">
308.150000
307.006477
305.863294
304.720790
303.579304
302.439175
301.300740
300.164333
299.030289
297.898940
296.770614
295.645640
294.524340
293.407038
292.294049
291.185690
290.082271
288.984100
287.891479
286.804708
285.724082
284.649892
283.582425
282.521962
281.468781
280.423155
279.385353
278.355637
277.334266
276.321493
275.317593
274.327223
273.517982
273.160630
272.979537
272.855781
272.757574
272.673222
272.597297
272.526880
272.460244
272.396296
272.334308
272.273779
272.214357
272.155786
272.097880
272.040503
271.983552
271.926950
271.870641
271.814581
271.758739
271.703090
271.647616
271.592305
271.537146
271.482132
271.427259
271.372523
271.317922
271.263456
271.209122
271.154923
271.100858
271.046928
270.993134
270.939477
270.885960
270.832582
270.779346
270.726254
270.673307
270.620507
270.567855
270.515353
270.463003
270.410807
270.358765
270.306881
270.255155
270.203590
270.152186
270.100946
270.049871
269.998963
269.948223
269.897653
269.847254
269.797028
269.746977
269.697101
269.647403
269.597884
269.548544
269.499387
269.450412
269.401622
269.353017
269.304599
269.256370
269.208330
269.160482
269.112825
269.065361
269.018093
268.971019
268.924143
268.877465
268.830985
268.784706
268.738628
268.692753
268.647080
268.601612
268.556350
268.511293
268.466444
268.421803
268.377371
268.333149
268.289137
268.245337
268.201750
268.158376
268.115215
268.072269
268.029539
267.987025
267.944728
267.902648
267.860786
267.819142
267.777719
267.736514
267.695531
267.654768
267.614227
267.573907
267.533810
267.493936
267.454285
267.414858
267.375654
267.336675
267.297921
267.259392
267.221088
267.183010
267.145158
267.107531
267.070131
267.032958
266.996011
266.959291
266.922798
266.886532
266.850493
266.814682
266.779097
266.743740
266.708611
266.673708
266.639033
266.604586
266.570365
266.536372
266.502605
266.469066
266.435753
266.402667
266.369807
266.337174
266.304766
266.272585
266.240629
266.208898
266.177393
266.146112
266.115056
266.084223
266.053615
266.023230
265.993068
265.963128
265.933411
265.903916
265.874642
265.845589
265.816756
265.788144
265.759750
265.731576
265.703620
265.675882
265.648362
265.621058
265.593970
265.567098
265.540441
265.513999
265.487770
265.461754
265.435950
265.410358
265.384977
265.359807
265.334846
265.310094
265.285550
265.261214
265.237084
265.213160
265.189442
265.165927
265.142617
265.119509
265.096603
265.073898
265.051393
265.029087
265.006981
264.985072
264.963359
264.941843
264.920522
264.899394
264.878460
264.857719
264.837169
264.816809
264.796639
264.776657
264.756863
264.737256
264.717834
264.698597
264.679544
264.660674
264.641986
264.623478
264.605150
264.587001
264.569030
264.551236
264.533617
264.516173
264.498903
264.481806
264.464880
264.448125
264.431539
264.415122
264.398873
264.382790
264.366872
264.351119
264.335528
264.320100
264.304834
264.289727
264.274779
264.259989
264.245356
264.230879
264.216556
264.202387
264.188371
264.174506
264.160791
264.147226
264.133809
264.120539
264.107415
264.094436
264.081601
264.068909
264.056359
264.043949
264.031678
264.019547
264.007552
263.995694
263.983971
263.972383
263.960927
263.949604
263.938411
263.927349
263.916415
263.905609
263.894930
263.884376
263.873947
263.863641
263.853458
263.843396
263.833455
263.823633
263.813929
263.804343
263.794873
263.785517
263.776276
263.767149
263.758133
263.749228
263.740433
263.731748
263.723170
263.714699
263.706335
263.698075
263.689920
263.681867
263.673917
263.666067
263.658318
263.650668
263.643116
263.635661
263.628302
263.621039
263.613870
263.606794
263.599811
263.592920
263.586118
263.579407
263.572784
263.566250
263.559802
263.553440
263.547163
263.540970
263.534861
263.528834
263.522889
263.517024
263.511239
263.505533
263.499906
263.494355
263.488881
263.483482
263.478159
263.472909
263.467732
263.462627
263.457594
263.452632
263.447739
263.442916
263.438160
263.433473
263.428851
263.424296
263.419806
263.415381
263.411019
263.406720
263.402483
263.398307
263.394192
263.390138
263.386142
263.382205
263.378326
263.374504
263.370738
263.367028
263.363373
263.359773
263.356226
263.352732
263.349291
263.345901
263.342563
263.339275
263.336036
263.332847
263.329707
263.326614
263.323569
263.320570
263.317618
263.314711
263.311848
263.309031
263.306257
263.303526
263.300837
263.298191
263.295586
263.293022
263.290499
263.288015
263.285571
263.283165
263.280798
263.278468
263.276176
263.273920
263.271701
263.269517
263.267369
263.265255
263.263175
263.261129
263.259117
263.257137
263.255190
263.253274
263.251390
263.249537
263.247715
263.245922
263.244160
263.242427
263.240722
263.239046
263.237398
263.235778
263.234184
263.232618
263.231078
263.229564
263.228076
263.226613
263.225175
263.223761
263.222372
263.221006
263.219664
263.218344
263.217048
263.215774
263.214522
263.213292
263.212083
263.210895
263.209728
263.208581
263.207455
263.206348
263.205260
263.204192
263.203143
263.202112
263.201100
263.200105
263.199129
263.198169
263.197227
263.196302
263.195393
263.194501
263.193625
263.192765
263.191920
263.191090
263.190276
263.189477
263.188692
263.187921
263.187165
263.186422
263.185693
263.184978
263.184275
263.183586
263.182909
263.182246
263.181594
263.180954
263.180327
263.179711
263.179107
263.178514
263.177932
263.177362
263.176802
263.176252
263.175713
263.175185
263.174666
263.174157
263.173658
263.173169
263.172689
263.172218
263.171756
263.171303
263.170859
263.170423
263.169996
263.169577
263.169166
263.168764
263.168369
263.167982
263.167602
263.167230
263.166865
263.166508
263.166157
263.165814
263.165477
263.165147
263.164823
263.164506
263.164196
263.163891
263.163593
263.163300
263.163013
263.162733
263.162457
263.162188
263.161924
263.161665
263.161411
263.161163
263.160919
263.160681
263.160447
263.160219
263.159995
263.159775
263.159560
263.159350
263.159143
263.158942
263.158744
263.158550
263.158360
263.158175
263.157993
263.157815
263.157641
263.157470
263.157303
263.157139
263.156979
263.156823
263.156669
263.156519
263.156372
263.156228
263.156087
263.155949
263.155814
263.155682
263.155553
263.155427
263.155303
263.155182
263.155064
263.154948
263.154834
263.154723
263.154615
263.154508
263.154405
263.154303
263.154203
263.154106
263.154011
263.153918
263.153827
263.153738
263.153651
263.153566
263.153483
263.153401
263.153321
263.153244
263.153167
263.153093
263.153020
263.152949
263.152880
263.152811
263.152745
263.152680
263.152616
263.152554
263.152494
263.152434
263.152376
263.152319
263.152264
263.152210
263.152157
263.152105
263.152055
263.152005
263.151957
263.151910
263.151864
263.151819
263.151775
263.151732
263.151690
263.151649
263.151608
263.151569
263.151531
263.151494
263.151457
263.151422
263.151387
263.151353
263.151319
263.151287
263.151255
263.151224
263.151194
263.151165
263.151136
263.151108
263.151080
263.151053
263.151027
263.151002
263.150977
263.150952
263.150929
263.150905
263.150883
263.150861
263.150839
263.150818
263.150797
263.150777
263.150758
263.150739
263.150720
263.150702
263.150684
263.150667
263.150650
263.150633
263.150617
263.150601
263.150586
263.150571
263.150556
263.150542
263.150528
263.150515
263.150502
263.150489
263.150476
263.150464
263.150452
263.150440
263.150429
263.150418
263.150407
263.150396
263.150386
263.150376
263.150366
263.150357
263.150347
263.150338
263.150329
263.150321
263.150312
263.150304
263.150296
263.150288
263.150281
263.150273
263.150266
263.150259
263.150252
263.150246
263.150239
263.150233
263.150227
263.150221
263.150215
263.150209
263.150203
263.150198
263.150193
263.150188
263.150182
263.150178
263.150173
263.150168
263.150164
263.150159
263.150155
263.150151
263.150147
263.150143
263.150139
263.150135
263.150131
263.150128
263.150124
263.150121
263.150118
263.150114
263.150111
263.150108
263.150105
263.150102
263.150099
263.150097
263.150094
263.150091
263.150089
263.150086
263.150084
263.150082
263.150079
263.150077
263.150075
263.150073
263.150071
263.150069
263.150067
263.150065
263.150063
263.150061
263.150059
263.150058
263.150056
263.150054
263.150053
263.150051
263.150050
263.150048
263.150047
263.150046
263.150044
263.150043
263.150042
263.150040
263.150039
263.150038
263.150037
263.150036
263.150035
263.150034
263.150033
263.150031
263.150031
263.150030
263.150029
263.150028
263.150027
263.150026
263.150025
263.150024
263.150023
263.150023
263.150022
263.150021
263.150020
263.150020
263.150019
263.150018
263.150017
263.150017
263.150016
263.150015
263.150015
263.150014
263.150014
263.150013
263.150012
263.150012
263.150011
263.150011
263.150010
263.150010
263.150009
263.150009
263.150008
263.150008
263.150007
263.150007
263.150006
263.150006
263.150005
263.150005
263.150004
263.150004
263.150003
263.150003
263.150002
263.150002
263.150001
263.150001
263.150000
263.150000
        </DataArray>
      </PointData>
      <CellData>
      </CellData>
    </Piece>
  </UnstructuredGrid>
</VTKFile>
