<?xml version="1.0"?>
<VTKFile type="UnstructuredGrid" version="0.1" byte_order="LittleEndian">
  <UnstructuredGrid>
    <Piece NumberOfPoints="801" NumberOfCells="800">
      <Points>
        <DataArray type="Float32" NumberOfComponents="3" format="ascii">
0.000000 0.0 0.0
0.005000 0.0 0.0
0.010000 0.0 0.0
0.015000 0.0 0.0
0.020000 0.0 0.0
0.025000 0.0 0.0
0.030000 0.0 0.0
0.035000 0.0 0.0
0.040000 0.0 0.0
0.045000 0.0 0.0
0.050000 0.0 0.0
0.055000 0.0 0.0
0.060000 0.0 0.0
0.065000 0.0 0.0
0.070000 0.0 0.0
0.075000 0.0 0.0
0.080000 0.0 0.0
0.085000 0.0 0.0
0.090000 0.0 0.0
0.095000 0.0 0.0
0.100000 0.0 0.0
0.105000 0.0 0.0
0.110000 0.0 0.0
0.115000 0.0 0.0
0.120000 0.0 0.0
0.125000 0.0 0.0
0.130000 0.0 0.0
0.135000 0.0 0.0
0.140000 0.0 0.0
0.145000 0.0 0.0
0.150000 0.0 0.0
0.155000 0.0 0.0
0.160000 0.0 0.0
0.165000 0.0 0.0
0.170000 0.0 0.0
0.175000 0.0 0.0
0.180000 0.0 0.0
0.185000 0.0 0.0
0.190000 0.0 0.0
0.195000 0.0 0.0
0.200000 0.0 0.0
0.205000 0.0 0.0
0.210000 0.0 0.0
0.215000 0.0 0.0
0.220000 0.0 0.0
0.225000 0.0 0.0
0.230000 0.0 0.0
0.235000 0.0 0.0
0.240000 0.0 0.0
0.245000 0.0 0.0
0.250000 0.0 0.0
0.255000 0.0 0.0
0.260000 0.0 0.0
0.265000 0.0 0.0
0.270000 0.0 0.0
0.275000 0.0 0.0
0.280000 0.0 0.0
0.285000 0.0 0.0
0.290000 0.0 0.0
0.295000 0.0 0.0
0.300000 0.0 0.0
0.305000 0.0 0.0
0.310000 0.0 0.0
0.315000 0.0 0.0
0.320000 0.0 0.0
0.325000 0.0 0.0
0.330000 0.0 0.0
0.335000 0.0 0.0
0.340000 0.0 0.0
0.345000 0.0 0.0
0.350000 0.0 0.0
0.355000 0.0 0.0
0.360000 0.0 0.0
0.365000 0.0 0.0
0.370000 0.0 0.0
0.375000 0.0 0.0
0.380000 0.0 0.0
0.385000 0.0 0.0
0.390000 0.0 0.0
0.395000 0.0 0.0
0.400000 0.0 0.0
0.405000 0.0 0.0
0.410000 0.0 0.0
0.415000 0.0 0.0
0.420000 0.0 0.0
0.425000 0.0 0.0
0.430000 0.0 0.0
0.435000 0.0 0.0
0.440000 0.0 0.0
0.445000 0.0 0.0
0.450000 0.0 0.0
0.455000 0.0 0.0
0.460000 0.0 0.0
0.465000 0.0 0.0
0.470000 0.0 0.0
0.475000 0.0 0.0
0.480000 0.0 0.0
0.485000 0.0 0.0
0.490000 0.0 0.0
0.495000 0.0 0.0
0.500000 0.0 0.0
0.505000 0.0 0.0
0.510000 0.0 0.0
0.515000 0.0 0.0
0.520000 0.0 0.0
0.525000 0.0 0.0
0.530000 0.0 0.0
0.535000 0.0 0.0
0.540000 0.0 0.0
0.545000 0.0 0.0
0.550000 0.0 0.0
0.555000 0.0 0.0
0.560000 0.0 0.0
0.565000 0.0 0.0
0.570000 0.0 0.0
0.575000 0.0 0.0
0.580000 0.0 0.0
0.585000 0.0 0.0
0.590000 0.0 0.0
0.595000 0.0 0.0
0.600000 0.0 0.0
0.605000 0.0 0.0
0.610000 0.0 0.0
0.615000 0.0 0.0
0.620000 0.0 0.0
0.625000 0.0 0.0
0.630000 0.0 0.0
0.635000 0.0 0.0
0.640000 0.0 0.0
0.645000 0.0 0.0
0.650000 0.0 0.0
0.655000 0.0 0.0
0.660000 0.0 0.0
0.665000 0.0 0.0
0.670000 0.0 0.0
0.675000 0.0 0.0
0.680000 0.0 0.0
0.685000 0.0 0.0
0.690000 0.0 0.0
0.695000 0.0 0.0
0.700000 0.0 0.0
0.705000 0.0 0.0
0.710000 0.0 0.0
0.715000 0.0 0.0
0.720000 0.0 0.0
0.725000 0.0 0.0
0.730000 0.0 0.0
0.735000 0.0 0.0
0.740000 0.0 0.0
0.745000 0.0 0.0
0.750000 0.0 0.0
0.755000 0.0 0.0
0.760000 0.0 0.0
0.765000 0.0 0.0
0.770000 0.0 0.0
0.775000 0.0 0.0
0.780000 0.0 0.0
0.785000 0.0 0.0
0.790000 0.0 0.0
0.795000 0.0 0.0
0.800000 0.0 0.0
0.805000 0.0 0.0
0.810000 0.0 0.0
0.815000 0.0 0.0
0.820000 0.0 0.0
0.825000 0.0 0.0
0.830000 0.0 0.0
0.835000 0.0 0.0
0.840000 0.0 0.0
0.845000 0.0 0.0
0.850000 0.0 0.0
0.855000 0.0 0.0
0.860000 0.0 0.0
0.865000 0.0 0.0
0.870000 0.0 0.0
0.875000 0.0 0.0
0.880000 0.0 0.0
0.885000 0.0 0.0
0.890000 0.0 0.0
0.895000 0.0 0.0
0.900000 0.0 0.0
0.905000 0.0 0.0
0.910000 0.0 0.0
0.915000 0.0 0.0
0.920000 0.0 0.0
0.925000 0.0 0.0
0.930000 0.0 0.0
0.935000 0.0 0.0
0.940000 0.0 0.0
0.945000 0.0 0.0
0.950000 0.0 0.0
0.955000 0.0 0.0
0.960000 0.0 0.0
0.965000 0.0 0.0
0.970000 0.0 0.0
0.975000 0.0 0.0
0.980000 0.0 0.0
0.985000 0.0 0.0
0.990000 0.0 0.0
0.995000 0.0 0.0
1.000000 0.0 0.0
1.005000 0.0 0.0
1.010000 0.0 0.0
1.015000 0.0 0.0
1.020000 0.0 0.0
1.025000 0.0 0.0
1.030000 0.0 0.0
1.035000 0.0 0.0
1.040000 0.0 0.0
1.045000 0.0 0.0
1.050000 0.0 0.0
1.055000 0.0 0.0
1.060000 0.0 0.0
1.065000 0.0 0.0
1.070000 0.0 0.0
1.075000 0.0 0.0
1.080000 0.0 0.0
1.085000 0.0 0.0
1.090000 0.0 0.0
1.095000 0.0 0.0
1.100000 0.0 0.0
1.105000 0.0 0.0
1.110000 0.0 0.0
1.115000 0.0 0.0
1.120000 0.0 0.0
1.125000 0.0 0.0
1.130000 0.0 0.0
1.135000 0.0 0.0
1.140000 0.0 0.0
1.145000 0.0 0.0
1.150000 0.0 0.0
1.155000 0.0 0.0
1.160000 0.0 0.0
1.165000 0.0 0.0
1.170000 0.0 0.0
1.175000 0.0 0.0
1.180000 0.0 0.0
1.185000 0.0 0.0
1.190000 0.0 0.0
1.195000 0.0 0.0
1.200000 0.0 0.0
1.205000 0.0 0.0
1.210000 0.0 0.0
1.215000 0.0 0.0
1.220000 0.0 0.0
1.225000 0.0 0.0
1.230000 0.0 0.0
1.235000 0.0 0.0
1.240000 0.0 0.0
1.245000 0.0 0.0
1.250000 0.0 0.0
1.255000 0.0 0.0
1.260000 0.0 0.0
1.265000 0.0 0.0
1.270000 0.0 0.0
1.275000 0.0 0.0
1.280000 0.0 0.0
1.285000 0.0 0.0
1.290000 0.0 0.0
1.295000 0.0 0.0
1.300000 0.0 0.0
1.305000 0.0 0.0
1.310000 0.0 0.0
1.315000 0.0 0.0
1.320000 0.0 0.0
1.325000 0.0 0.0
1.330000 0.0 0.0
1.335000 0.0 0.0
1.340000 0.0 0.0
1.345000 0.0 0.0
1.350000 0.0 0.0
1.355000 0.0 0.0
1.360000 0.0 0.0
1.365000 0.0 0.0
1.370000 0.0 0.0
1.375000 0.0 0.0
1.380000 0.0 0.0
1.385000 0.0 0.0
1.390000 0.0 0.0
1.395000 0.0 0.0
1.400000 0.0 0.0
1.405000 0.0 0.0
1.410000 0.0 0.0
1.415000 0.0 0.0
1.420000 0.0 0.0
1.425000 0.0 0.0
1.430000 0.0 0.0
1.435000 0.0 0.0
1.440000 0.0 0.0
1.445000 0.0 0.0
1.450000 0.0 0.0
1.455000 0.0 0.0
1.460000 0.0 0.0
1.465000 0.0 0.0
1.470000 0.0 0.0
1.475000 0.0 0.0
1.480000 0.0 0.0
1.485000 0.0 0.0
1.490000 0.0 0.0
1.495000 0.0 0.0
1.500000 0.0 0.0
1.505000 0.0 0.0
1.510000 0.0 0.0
1.515000 0.0 0.0
1.520000 0.0 0.0
1.525000 0.0 0.0
1.530000 0.0 0.0
1.535000 0.0 0.0
1.540000 0.0 0.0
1.545000 0.0 0.0
1.550000 0.0 0.0
1.555000 0.0 0.0
1.560000 0.0 0.0
1.565000 0.0 0.0
1.570000 0.0 0.0
1.575000 0.0 0.0
1.580000 0.0 0.0
1.585000 0.0 0.0
1.590000 0.0 0.0
1.595000 0.0 0.0
1.600000 0.0 0.0
1.605000 0.0 0.0
1.610000 0.0 0.0
1.615000 0.0 0.0
1.620000 0.0 0.0
1.625000 0.0 0.0
1.630000 0.0 0.0
1.635000 0.0 0.0
1.640000 0.0 0.0
1.645000 0.0 0.0
1.650000 0.0 0.0
1.655000 0.0 0.0
1.660000 0.0 0.0
1.665000 0.0 0.0
1.670000 0.0 0.0
1.675000 0.0 0.0
1.680000 0.0 0.0
1.685000 0.0 0.0
1.690000 0.0 0.0
1.695000 0.0 0.0
1.700000 0.0 0.0
1.705000 0.0 0.0
1.710000 0.0 0.0
1.715000 0.0 0.0
1.720000 0.0 0.0
1.725000 0.0 0.0
1.730000 0.0 0.0
1.735000 0.0 0.0
1.740000 0.0 0.0
1.745000 0.0 0.0
1.750000 0.0 0.0
1.755000 0.0 0.0
1.760000 0.0 0.0
1.765000 0.0 0.0
1.770000 0.0 0.0
1.775000 0.0 0.0
1.780000 0.0 0.0
1.785000 0.0 0.0
1.790000 0.0 0.0
1.795000 0.0 0.0
1.800000 0.0 0.0
1.805000 0.0 0.0
1.810000 0.0 0.0
1.815000 0.0 0.0
1.820000 0.0 0.0
1.825000 0.0 0.0
1.830000 0.0 0.0
1.835000 0.0 0.0
1.840000 0.0 0.0
1.845000 0.0 0.0
1.850000 0.0 0.0
1.855000 0.0 0.0
1.860000 0.0 0.0
1.865000 0.0 0.0
1.870000 0.0 0.0
1.875000 0.0 0.0
1.880000 0.0 0.0
1.885000 0.0 0.0
1.890000 0.0 0.0
1.895000 0.0 0.0
1.900000 0.0 0.0
1.905000 0.0 0.0
1.910000 0.0 0.0
1.915000 0.0 0.0
1.920000 0.0 0.0
1.925000 0.0 0.0
1.930000 0.0 0.0
1.935000 0.0 0.0
1.940000 0.0 0.0
1.945000 0.0 0.0
1.950000 0.0 0.0
1.955000 0.0 0.0
1.960000 0.0 0.0
1.965000 0.0 0.0
1.970000 0.0 0.0
1.975000 0.0 0.0
1.980000 0.0 0.0
1.985000 0.0 0.0
1.990000 0.0 0.0
1.995000 0.0 0.0
2.000000 0.0 0.0
2.005000 0.0 0.0
2.010000 0.0 0.0
2.015000 0.0 0.0
2.020000 0.0 0.0
2.025000 0.0 0.0
2.030000 0.0 0.0
2.035000 0.0 0.0
2.040000 0.0 0.0
2.045000 0.0 0.0
2.050000 0.0 0.0
2.055000 0.0 0.0
2.060000 0.0 0.0
2.065000 0.0 0.0
2.070000 0.0 0.0
2.075000 0.0 0.0
2.080000 0.0 0.0
2.085000 0.0 0.0
2.090000 0.0 0.0
2.095000 0.0 0.0
2.100000 0.0 0.0
2.105000 0.0 0.0
2.110000 0.0 0.0
2.115000 0.0 0.0
2.120000 0.0 0.0
2.125000 0.0 0.0
2.130000 0.0 0.0
2.135000 0.0 0.0
2.140000 0.0 0.0
2.145000 0.0 0.0
2.150000 0.0 0.0
2.155000 0.0 0.0
2.160000 0.0 0.0
2.165000 0.0 0.0
2.170000 0.0 0.0
2.175000 0.0 0.0
2.180000 0.0 0.0
2.185000 0.0 0.0
2.190000 0.0 0.0
2.195000 0.0 0.0
2.200000 0.0 0.0
2.205000 0.0 0.0
2.210000 0.0 0.0
2.215000 0.0 0.0
2.220000 0.0 0.0
2.225000 0.0 0.0
2.230000 0.0 0.0
2.235000 0.0 0.0
2.240000 0.0 0.0
2.245000 0.0 0.0
2.250000 0.0 0.0
2.255000 0.0 0.0
2.260000 0.0 0.0
2.265000 0.0 0.0
2.270000 0.0 0.0
2.275000 0.0 0.0
2.280000 0.0 0.0
2.285000 0.0 0.0
2.290000 0.0 0.0
2.295000 0.0 0.0
2.300000 0.0 0.0
2.305000 0.0 0.0
2.310000 0.0 0.0
2.315000 0.0 0.0
2.320000 0.0 0.0
2.325000 0.0 0.0
2.330000 0.0 0.0
2.335000 0.0 0.0
2.340000 0.0 0.0
2.345000 0.0 0.0
2.350000 0.0 0.0
2.355000 0.0 0.0
2.360000 0.0 0.0
2.365000 0.0 0.0
2.370000 0.0 0.0
2.375000 0.0 0.0
2.380000 0.0 0.0
2.385000 0.0 0.0
2.390000 0.0 0.0
2.395000 0.0 0.0
2.400000 0.0 0.0
2.405000 0.0 0.0
2.410000 0.0 0.0
2.415000 0.0 0.0
2.420000 0.0 0.0
2.425000 0.0 0.0
2.430000 0.0 0.0
2.435000 0.0 0.0
2.440000 0.0 0.0
2.445000 0.0 0.0
2.450000 0.0 0.0
2.455000 0.0 0.0
2.460000 0.0 0.0
2.465000 0.0 0.0
2.470000 0.0 0.0
2.475000 0.0 0.0
2.480000 0.0 0.0
2.485000 0.0 0.0
2.490000 0.0 0.0
2.495000 0.0 0.0
2.500000 0.0 0.0
2.505000 0.0 0.0
2.510000 0.0 0.0
2.515000 0.0 0.0
2.520000 0.0 0.0
2.525000 0.0 0.0
2.530000 0.0 0.0
2.535000 0.0 0.0
2.540000 0.0 0.0
2.545000 0.0 0.0
2.550000 0.0 0.0
2.555000 0.0 0.0
2.560000 0.0 0.0
2.565000 0.0 0.0
2.570000 0.0 0.0
2.575000 0.0 0.0
2.580000 0.0 0.0
2.585000 0.0 0.0
2.590000 0.0 0.0
2.595000 0.0 0.0
2.600000 0.0 0.0
2.605000 0.0 0.0
2.610000 0.0 0.0
2.615000 0.0 0.0
2.620000 0.0 0.0
2.625000 0.0 0.0
2.630000 0.0 0.0
2.635000 0.0 0.0
2.640000 0.0 0.0
2.645000 0.0 0.0
2.650000 0.0 0.0
2.655000 0.0 0.0
2.660000 0.0 0.0
2.665000 0.0 0.0
2.670000 0.0 0.0
2.675000 0.0 0.0
2.680000 0.0 0.0
2.685000 0.0 0.0
2.690000 0.0 0.0
2.695000 0.0 0.0
2.700000 0.0 0.0
2.705000 0.0 0.0
2.710000 0.0 0.0
2.715000 0.0 0.0
2.720000 0.0 0.0
2.725000 0.0 0.0
2.730000 0.0 0.0
2.735000 0.0 0.0
2.740000 0.0 0.0
2.745000 0.0 0.0
2.750000 0.0 0.0
2.755000 0.0 0.0
2.760000 0.0 0.0
2.765000 0.0 0.0
2.770000 0.0 0.0
2.775000 0.0 0.0
2.780000 0.0 0.0
2.785000 0.0 0.0
2.790000 0.0 0.0
2.795000 0.0 0.0
2.800000 0.0 0.0
2.805000 0.0 0.0
2.810000 0.0 0.0
2.815000 0.0 0.0
2.820000 0.0 0.0
2.825000 0.0 0.0
2.830000 0.0 0.0
2.835000 0.0 0.0
2.840000 0.0 0.0
2.845000 0.0 0.0
2.850000 0.0 0.0
2.855000 0.0 0.0
2.860000 0.0 0.0
[...]
      <PointData Scalars="Temperature">
        <DataArray type="Float32" Name="Temperature" format="ascii">
308.150000
307.208327
306.266846
305.325750
304.385231
303.445481
302.506692
301.569054
300.632758
299.697992
298.764944
297.833804
296.904755
295.977984
295.053673
294.132006
293.213162
292.297319
291.384656
290.475347
289.569565
288.667482
287.769266
286.875085
285.985103
285.099483
284.218384
283.341966
282.470382
281.603787
280.742331
279.886164
279.035433
278.190281
277.350851
276.517285
275.689724
274.868529
274.065798
273.455344
273.166085
273.006358
272.894797
272.806268
272.730775
272.663474
272.601685
272.543787
272.488729
272.435801
272.384501
272.334465
272.285426
272.237182
272.189576
272.142492
272.095835
272.049533
272.003529
271.957777
271.912243
271.866898
271.821719
271.776688
271.731791
271.687018
271.642359
271.597807
271.553357
271.509005
271.464748
271.420583
271.376508
271.332524
271.288628
271.244820
271.201100
271.157468
271.113925
271.070471
271.027105
270.983830
270.940645
270.897551
270.854549
270.811639
270.768823
270.726102
270.683475
270.640945
270.598511
270.556175
270.513937
270.471799
270.429761
270.387824
270.345990
270.304258
270.262630
270.221106
270.179688
270.138376
270.097171
270.056074
270.015085
269.974206
269.933438
269.892780
269.852234
269.811801
269.771482
269.731276
269.691185
269.651210
269.611352
269.571610
269.531987
269.492482
269.453096
269.413830
269.374684
269.335660
269.296758
269.257979
269.219322
269.180790
269.142382
269.104100
269.065943
269.027912
268.990009
268.952233
268.914585
268.877066
268.839676
268.802416
268.765287
268.728288
268.691421
268.654686
268.618083
268.581613
268.545277
268.509075
268.473007
268.437074
268.401276
268.365614
268.330089
268.294700
268.259448
268.224333
268.189357
268.154518
268.119819
268.085258
268.050837
268.016556
267.982414
267.948414
267.914554
267.880835
267.847257
267.813821
267.780527
267.747376
267.714367
267.681501
267.648778
267.616198
267.583762
267.551470
267.519322
267.487318
267.455458
267.423744
267.392174
267.360749
267.329469
267.298335
267.267346
267.236503
267.205806
267.175255
267.144850
267.114590
267.084478
267.054511
267.024691
266.995018
266.965491
266.936111
266.906878
266.877791
266.848852
266.820059
266.791413
266.762913
266.734561
266.706356
266.678297
266.650386
266.622621
266.595003
266.567532
266.540207
266.513029
266.485998
266.459113
266.432375
266.405783
266.379337
266.353038
266.326884
266.300877
266.275015
266.249299
266.223728
266.198303
266.173023
266.147889
266.122899
266.098054
266.073353
266.048797
266.024385
266.000118
265.975994
265.952013
265.928176
265.904482
265.880931
265.857523
265.834257
265.811133
265.788151
265.765311
265.742612
265.720055
265.697638
265.675362
265.653226
265.631230
265.609374
265.587657
265.566079
265.544640
265.523340
265.502177
265.481152
265.460265
265.439515
265.418901
265.398424
265.378082
265.357877
265.337806
265.317871
265.298070
265.278403
265.258870
265.239470
265.220204
265.201069
265.182067
265.163197
265.144458
265.125850
265.107372
265.089024
265.070806
265.052718
265.034758
265.016926
264.999222
264.981645
264.964196
264.946873
264.929676
264.912604
264.895658
264.878836
264.862139
264.845565
264.829114
264.812786
264.796580
264.780497
264.764534
264.748692
264.732970
264.717368
264.701886
264.686522
264.671276
264.656149
264.641138
264.626244
264.611466
264.596804
264.582257
264.567825
264.553507
264.539303
264.525211
264.511232
264.497366
264.483610
264.469966
264.456432
264.443007
264.429693
264.416486
264.403389
264.390398
264.377515
264.364739
264.352068
264.339504
264.327044
264.314688
264.302436
264.290288
264.278242
264.266299
264.254457
264.242716
264.231076
264.219536
264.208095
264.196753
264.185510
264.174364
264.163315
264.152363
264.141507
264.130746
264.120081
264.109509
264.099032
264.088648
264.078356
264.068157
264.058049
264.048033
264.038107
264.028270
264.018523
264.008865
263.999295
263.989813
263.980418
263.971109
263.961887
263.952750
263.943697
263.934730
263.925846
263.917045
263.908327
263.899691
263.891136
263.882663
263.874270
263.865957
263.857723
263.849569
263.841492
263.833494
263.825572
263.817728
263.809959
263.802266
263.794648
263.787105
263.779636
263.772240
263.764917
263.757666
263.750488
263.743380
263.736344
263.729378
263.722481
263.715654
263.708896
263.702206
263.695583
263.689028
263.682539
263.676117
263.669760
263.663468
263.657241
263.651078
263.644979
263.638943
263.632969
263.627058
263.621208
263.615420
263.609692
263.604024
263.598416
263.592868
263.587377
263.581946
263.576571
263.571255
263.565995
263.560791
263.555643
263.550551
263.545513
263.540530
263.535601
263.530726
263.525904
263.521134
263.516417
263.511751
263.507136
263.502573
263.498059
263.493596
263.489182
263.484818
263.480501
263.476234
263.472014
263.467841
263.463715
263.459636
263.455603
263.451615
263.447673
263.443775
263.439922
263.436114
263.432348
263.428626
263.424947
263.421310
263.417715
263.414162
263.410649
263.407178
263.403748
263.400357
263.397006
263.393694
263.390421
263.387187
263.383991
263.380833
263.377712
263.374628
263.371581
263.368571
263.365596
263.362657
263.359753
263.356884
263.354050
263.351250
263.348484
263.345752
263.343053
263.340386
263.337752
263.335151
263.332581
263.330043
263.327536
263.325060
263.322615
263.320200
263.317815
263.315459
263.313133
263.310836
263.308568
263.306328
263.304116
263.301932
263.299776
263.297647
263.295545
263.293469
263.291420
263.289397
263.287400
263.285428
263.283482
263.281561
263.279664
263.277792
263.275944
263.274119
263.272319
263.270542
263.268788
263.267056
263.265348
263.263662
263.261998
263.260355
263.258735
263.257135
263.255557
263.254000
263.252463
263.250947
263.249451
263.247975
263.246519
263.245082
263.243664
263.242266
263.240886
263.239525
263.238182
263.236858
263.235551
263.234262
263.232991
263.231737
263.230500
263.229280
263.228077
263.226890
263.225720
263.224565
263.223427
263.222304
263.221197
263.220106
263.219029
263.217968
263.216921
263.215889
263.214871
263.213868
263.212879
263.211903
263.210942
263.209994
263.209059
263.208138
263.207229
263.206334
263.205451
263.204581
263.203724
263.202879
263.202045
263.201224
263.200415
263.199617
263.198831
263.198056
263.197292
263.196540
263.195798
263.195067
263.194347
263.193638
263.192938
263.192249
263.191571
263.190902
263.190243
263.189593
263.188954
263.188323
263.187702
263.187091
263.186488
263.185895
263.185310
263.184734
263.184167
263.183608
263.183057
263.182515
263.181981
263.181455
263.180937
263.180427
263.179924
263.179430
263.178942
263.178462
263.177990
263.177524
263.177066
263.176615
263.176171
263.175733
263.175303
263.174879
263.174461
263.174050
263.173646
263.173247
263.172855
263.172469
263.172089
263.171715
263.171346
263.170984
263.170627
263.170276
263.169930
263.169590
263.169255
263.168925
263.168601
263.168282
263.167967
263.167658
263.167354
263.167055
263.166760
263.166470
263.166185
263.165904
263.165628
263.165356
263.165088
263.164825
263.164566
263.164312
263.164061
263.163815
263.163572
263.163334
263.163099
263.162868
263.162641
263.162418
263.162198
263.161982
263.161769
263.161560
263.161354
263.161152
263.160953
263.160757
263.160565
263.160376
263.160190
263.160007
263.159827
263.159650
263.159475
263.159304
263.159136
263.158970
263.158808
263.158648
263.158490
263.158336
263.158184
263.158034
263.157887
263.157742
263.157600
263.157461
263.157323
263.157188
263.157055
263.156925
263.156797
263.156670
263.156546
263.156425
263.156305
263.156187
263.156071
263.155957
263.155846
263.155736
263.155628
263.155521
263.155417
263.155314
263.155213
263.155114
263.155017
263.154921
263.154827
263.154734
263.154643
263.154554
263.154466
263.154380
263.154295
263.154212
263.154130
263.154049
263.153970
263.153892
263.153815
263.153740
263.153666
263.153594
263.153522
263.153452
263.153383
263.153315
263.153249
263.153183
263.153119
263.153055
263.152993
263.152932
263.152872
263.152813
263.152755
263.152697
263.152641
263.152586
263.152532
263.152478
263.152426
263.152374
263.152323
263.152273
263.152224
263.152176
263.152128
263.152081
263.152035
263.151990
263.151945
263.151901
263.151858
263.151816
263.151774
263.151733
263.151692
263.151652
263.151613
263.151574
263.151536
263.151499
263.151462
263.151425
263.151389
263.151354
263.151319
263.151284
263.151251
263.151217
263.151184
263.151152
263.151120
263.151088
263.151057
263.151026
263.150995
263.150965
263.150935
263.150906
263.150877
263.150848
263.150820
263.150792
263.150764
263.150737
263.150709
263.150682
263.150656
263.150629
263.150603
263.150577
263.150552
263.150526
263.150501
263.150476
263.150451
263.150426
263.150402
263.150377
263.150353
263.150329
263.150305
263.150281
263.150257
263.150233
263.150210
263.150186
263.150163
263.150139
263.150116
263.150093
263.150070
263.150046
263.150023
263.150000
        </DataArray>
      </PointData>
      <CellData>
      </CellData>
    </Piece>
  </UnstructuredGrid>
</VTKFile>
