<?xml version="1.0"?>
<VTKFile type="UnstructuredGrid" version="0.1" byte_order="LittleEndian">
  <UnstructuredGrid>
    <Piece NumberOfPoints="801" NumberOfCells="800">
      <Points>
        <DataArray type="Float32" NumberOfComponents="3" format="ascii">
0.000000 0.0 0.0
0.005000 0.0 0.0
0.010000 0.0 0.0
0.015000 0.0 0.0
0.020000 0.0 0.0
0.025000 0.0 0.0
0.030000 0.0 0.0
0.035000 0.0 0.0
0.040000 0.0 0.0
0.045000 0.0 0.0
0.050000 0.0 0.0
0.055000 0.0 0.0
0.060000 0.0 0.0
0.065000 0.0 0.0
0.070000 0.0 0.0
0.075000 0.0 0.0
0.080000 0.0 0.0
0.085000 0.0 0.0
0.090000 0.0 0.0
0.095000 0.0 0.0
0.100000 0.0 0.0
0.105000 0.0 0.0
0.110000 0.0 0.0
0.115000 0.0 0.0
0.120000 0.0 0.0
0.125000 0.0 0.0
0.130000 0.0 0.0
0.135000 0.0 0.0
0.140000 0.0 0.0
0.145000 0.0 0.0
0.150000 0.0 0.0
0.155000 0.0 0.0
0.160000 0.0 0.0
0.165000 0.0 0.0
0.170000 0.0 0.0
0.175000 0.0 0.0
0.180000 0.0 0.0
0.185000 0.0 0.0
0.190000 0.0 0.0
0.195000 0.0 0.0
0.200000 0.0 0.0
0.205000 0.0 0.0
0.210000 0.0 0.0
0.215000 0.0 0.0
0.220000 0.0 0.0
0.225000 0.0 0.0
0.230000 0.0 0.0
0.235000 0.0 0.0
0.240000 0.0 0.0
0.245000 0.0 0.0
0.250000 0.0 0.0
0.255000 0.0 0.0
0.260000 0.0 0.0
0.265000 0.0 0.0
0.270000 0.0 0.0
0.275000 0.0 0.0
0.280000 0.0 0.0
0.285000 0.0 0.0
0.290000 0.0 0.0
0.295000 0.0 0.0
0.300000 0.0 0.0
0.305000 0.0 0.0
0.310000 0.0 0.0
0.315000 0.0 0.0
0.320000 0.0 0.0
0.325000 0.0 0.0
0.330000 0.0 0.0
0.335000 0.0 0.0
0.340000 0.0 0.0
0.345000 0.0 0.0
0.350000 0.0 0.0
0.355000 0.0 0.0
0.360000 0.0 0.0
0.365000 0.0 0.0
0.370000 0.0 0.0
0.375000 0.0 0.0
0.380000 0.0 0.0
0.385000 0.0 0.0
0.390000 0.0 0.0
0.395000 0.0 0.0
0.400000 0.0 0.0
0.405000 0.0 0.0
0.410000 0.0 0.0
0.415000 0.0 0.0
0.420000 0.0 0.0
0.425000 0.0 0.0
0.430000 0.0 0.0
0.435000 0.0 0.0
0.440000 0.0 0.0
0.445000 0.0 0.0
0.450000 0.0 0.0
0.455000 0.0 0.0
0.460000 0.0 0.0
0.465000 0.0 0.0
0.470000 0.0 0.0
0.475000 0.0 0.0
0.480000 0.0 0.0
0.485000 0.0 0.0
0.490000 0.0 0.0
0.495000 0.0 0.0
0.500000 0.0 0.0
0.505000 0.0 0.0
0.510000 0.0 0.0
0.515000 0.0 0.0
0.520000 0.0 0.0
0.525000 0.0 0.0
0.530000 0.0 0.0
0.535000 0.0 0.0
0.540000 0.0 0.0
0.545000 0.0 0.0
0.550000 0.0 0.0
0.555000 0.0 0.0
0.560000 0.0 0.0
0.565000 0.0 0.0
0.570000 0.0 0.0
0.575000 0.0 0.0
0.580000 0.0 0.0
0.585000 0.0 0.0
0.590000 0.0 0.0
0.595000 0.0 0.0
0.600000 0.0 0.0
0.605000 0.0 0.0
0.610000 0.0 0.0
0.615000 0.0 0.0
0.620000 0.0 0.0
0.625000 0.0 0.0
0.630000 0.0 0.0
0.635000 0.0 0.0
0.640000 0.0 0.0
0.645000 0.0 0.0
0.650000 0.0 0.0
0.655000 0.0 0.0
0.660000 0.0 0.0
0.665000 0.0 0.0
0.670000 0.0 0.0
0.675000 0.0 0.0
0.680000 0.0 0.0
0.685000 0.0 0.0
0.690000 0.0 0.0
0.695000 0.0 0.0
0.700000 0.0 0.0
0.705000 0.0 0.0
0.710000 0.0 0.0
0.715000 0.0 0.0
0.720000 0.0 0.0
0.725000 0.0 0.0
0.730000 0.0 0.0
0.735000 0.0 0.0
0.740000 0.0 0.0
0.745000 0.0 0.0
0.750000 0.0 0.0
0.755000 0.0 0.0
0.760000 0.0 0.0
0.765000 0.0 0.0
0.770000 0.0 0.0
0.775000 0.0 0.0
0.780000 0.0 0.0
0.785000 0.0 0.0
0.790000 0.0 0.0
0.795000 0.0 0.0
0.800000 0.0 0.0
0.805000 0.0 0.0
0.810000 0.0 0.0
0.815000 0.0 0.0
0.820000 0.0 0.0
0.825000 0.0 0.0
0.830000 0.0 0.0
0.835000 0.0 0.0
0.840000 0.0 0.0
0.845000 0.0 0.0
0.850000 0.0 0.0
0.855000 0.0 0.0
0.860000 0.0 0.0
0.865000 0.0 0.0
0.870000 0.0 0.0
0.875000 0.0 0.0
0.880000 0.0 0.0
0.885000 0.0 0.0
0.890000 0.0 0.0
0.895000 0.0 0.0
0.900000 0.0 0.0
0.905000 0.0 0.0
0.910000 0.0 0.0
0.915000 0.0 0.0
0.920000 0.0 0.0
0.925000 0.0 0.0
0.930000 0.0 0.0
0.935000 0.0 0.0
0.940000 0.0 0.0
0.945000 0.0 0.0
0.950000 0.0 0.0
0.955000 0.0 0.0
0.960000 0.0 0.0
0.965000 0.0 0.0
0.970000 0.0 0.0
0.975000 0.0 0.0
0.980000 0.0 0.0
0.985000 0.0 0.0
0.990000 0.0 0.0
0.995000 0.0 0.0
1.000000 0.0 0.0
1.005000 0.0 0.0
1.010000 0.0 0.0
1.015000 0.0 0.0
1.020000 0.0 0.0
1.025000 0.0 0.0
1.030000 0.0 0.0
1.035000 0.0 0.0
1.040000 0.0 0.0
1.045000 0.0 0.0
1.050000 0.0 0.0
1.055000 0.0 0.0
1.060000 0.0 0.0
1.065000 0.0 0.0
1.070000 0.0 0.0
1.075000 0.0 0.0
1.080000 0.0 0.0
1.085000 0.0 0.0
1.090000 0.0 0.0
1.095000 0.0 0.0
1.100000 0.0 0.0
1.105000 0.0 0.0
1.110000 0.0 0.0
1.115000 0.0 0.0
1.120000 0.0 0.0
1.125000 0.0 0.0
1.130000 0.0 0.0
1.135000 0.0 0.0
1.140000 0.0 0.0
1.145000 0.0 0.0
1.150000 0.0 0.0
1.155000 0.0 0.0
1.160000 0.0 0.0
1.165000 0.0 0.0
1.170000 0.0 0.0
1.175000 0.0 0.0
1.180000 0.0 0.0
1.185000 0.0 0.0
1.190000 0.0 0.0
1.195000 0.0 0.0
1.200000 0.0 0.0
1.205000 0.0 0.0
1.210000 0.0 0.0
1.215000 0.0 0.0
1.220000 0.0 0.0
1.225000 0.0 0.0
1.230000 0.0 0.0
1.235000 0.0 0.0
1.240000 0.0 0.0
1.245000 0.0 0.0
1.250000 0.0 0.0
1.255000 0.0 0.0
1.260000 0.0 0.0
1.265000 0.0 0.0
1.270000 0.0 0.0
1.275000 0.0 0.0
1.280000 0.0 0.0
1.285000 0.0 0.0
1.290000 0.0 0.0
1.295000 0.0 0.0
1.300000 0.0 0.0
1.305000 0.0 0.0
1.310000 0.0 0.0
1.315000 0.0 0.0
1.320000 0.0 0.0
1.325000 0.0 0.0
1.330000 0.0 0.0
1.335000 0.0 0.0
1.340000 0.0 0.0
1.345000 0.0 0.0
1.350000 0.0 0.0
1.355000 0.0 0.0
1.360000 0.0 0.0
1.365000 0.0 0.0
1.370000 0.0 0.0
1.375000 0.0 0.0
1.380000 0.0 0.0
1.385000 0.0 0.0
1.390000 0.0 0.0
1.395000 0.0 0.0
1.400000 0.0 0.0
1.405000 0.0 0.0
1.410000 0.0 0.0
1.415000 0.0 0.0
1.420000 0.0 0.0
1.425000 0.0 0.0
1.430000 0.0 0.0
1.435000 0.0 0.0
1.440000 0.0 0.0
1.445000 0.0 0.0
1.450000 0.0 0.0
1.455000 0.0 0.0
1.460000 0.0 0.0
1.465000 0.0 0.0
1.470000 0.0 0.0
1.475000 0.0 0.0
1.480000 0.0 0.0
1.485000 0.0 0.0
1.490000 0.0 0.0
1.495000 0.0 0.0
1.500000 0.0 0.0
1.505000 0.0 0.0
1.510000 0.0 0.0
1.515000 0.0 0.0
1.520000 0.0 0.0
1.525000 0.0 0.0
1.530000 0.0 0.0
1.535000 0.0 0.0
1.540000 0.0 0.0
1.545000 0.0 0.0
1.550000 0.0 0.0
1.555000 0.0 0.0
1.560000 0.0 0.0
1.565000 0.0 0.0
1.570000 0.0 0.0
1.575000 0.0 0.0
1.580000 0.0 0.0
1.585000 0.0 0.0
1.590000 0.0 0.0
1.595000 0.0 0.0
1.600000 0.0 0.0
1.605000 0.0 0.0
1.610000 0.0 0.0
1.615000 0.0 0.0
1.620000 0.0 0.0
1.625000 0.0 0.0
1.630000 0.0 0.0
1.635000 0.0 0.0
1.640000 0.0 0.0
1.645000 0.0 0.0
1.650000 0.0 0.0
1.655000 0.0 0.0
1.660000 0.0 0.0
1.665000 0.0 0.0
1.670000 0.0 0.0
1.675000 0.0 0.0
1.680000 0.0 0.0
1.685000 0.0 0.0
1.690000 0.0 0.0
1.695000 0.0 0.0
1.700000 0.0 0.0
1.705000 0.0 0.0
1.710000 0.0 0.0
1.715000 0.0 0.0
1.720000 0.0 0.0
1.725000 0.0 0.0
1.730000 0.0 0.0
1.735000 0.0 0.0
1.740000 0.0 0.0
1.745000 0.0 0.0
1.750000 0.0 0.0
1.755000 0.0 0.0
1.760000 0.0 0.0
1.765000 0.0 0.0
1.770000 0.0 0.0
1.775000 0.0 0.0
1.780000 0.0 0.0
1.785000 0.0 0.0
1.790000 0.0 0.0
1.795000 0.0 0.0
1.800000 0.0 0.0
1.805000 0.0 0.0
1.810000 0.0 0.0
1.815000 0.0 0.0
1.820000 0.0 0.0
1.825000 0.0 0.0
1.830000 0.0 0.0
1.835000 0.0 0.0
1.840000 0.0 0.0
1.845000 0.0 0.0
1.850000 0.0 0.0
1.855000 0.0 0.0
1.860000 0.0 0.0
1.865000 0.0 0.0
1.870000 0.0 0.0
1.875000 0.0 0.0
1.880000 0.0 0.0
1.885000 0.0 0.0
1.890000 0.0 0.0
1.895000 0.0 0.0
1.900000 0.0 0.0
1.905000 0.0 0.0
1.910000 0.0 0.0
1.915000 0.0 0.0
1.920000 0.0 0.0
1.925000 0.0 0.0
1.930000 0.0 0.0
1.935000 0.0 0.0
1.940000 0.0 0.0
1.945000 0.0 0.0
1.950000 0.0 0.0
1.955000 0.0 0.0
1.960000 0.0 0.0
1.965000 0.0 0.0
1.970000 0.0 0.0
1.975000 0.0 0.0
1.980000 0.0 0.0
1.985000 0.0 0.0
1.990000 0.0 0.0
1.995000 0.0 0.0
2.000000 0.0 0.0
2.005000 0.0 0.0
2.010000 0.0 0.0
2.015000 0.0 0.0
2.020000 0.0 0.0
2.025000 0.0 0.0
2.030000 0.0 0.0
2.035000 0.0 0.0
2.040000 0.0 0.0
2.045000 0.0 0.0
2.050000 0.0 0.0
2.055000 0.0 0.0
2.060000 0.0 0.0
2.065000 0.0 0.0
2.070000 0.0 0.0
2.075000 0.0 0.0
2.080000 0.0 0.0
2.085000 0.0 0.0
2.090000 0.0 0.0
2.095000 0.0 0.0
2.100000 0.0 0.0
2.105000 0.0 0.0
2.110000 0.0 0.0
2.115000 0.0 0.0
2.120000 0.0 0.0
2.125000 0.0 0.0
2.130000 0.0 0.0
2.135000 0.0 0.0
2.140000 0.0 0.0
2.145000 0.0 0.0
2.150000 0.0 0.0
2.155000 0.0 0.0
2.160000 0.0 0.0
2.165000 0.0 0.0
2.170000 0.0 0.0
2.175000 0.0 0.0
2.180000 0.0 0.0
2.185000 0.0 0.0
2.190000 0.0 0.0
2.195000 0.0 0.0
2.200000 0.0 0.0
2.205000 0.0 0.0
2.210000 0.0 0.0
2.215000 0.0 0.0
2.220000 0.0 0.0
2.225000 0.0 0.0
2.230000 0.0 0.0
2.235000 0.0 0.0
2.240000 0.0 0.0
2.245000 0.0 0.0
2.250000 0.0 0.0
2.255000 0.0 0.0
2.260000 0.0 0.0
2.265000 0.0 0.0
2.270000 0.0 0.0
2.275000 0.0 0.0
2.280000 0.0 0.0
2.285000 0.0 0.0
2.290000 0.0 0.0
2.295000 0.0 0.0
2.300000 0.0 0.0
2.305000 0.0 0.0
2.310000 0.0 0.0
2.315000 0.0 0.0
2.320000 0.0 0.0
2.325000 0.0 0.0
2.330000 0.0 0.0
2.335000 0.0 0.0
2.340000 0.0 0.0
2.345000 0.0 0.0
2.350000 0.0 0.0
2.355000 0.0 0.0
2.360000 0.0 0.0
2.365000 0.0 0.0
2.370000 0.0 0.0
2.375000 0.0 0.0
2.380000 0.0 0.0
2.385000 0.0 0.0
2.390000 0.0 0.0
2.395000 0.0 0.0
2.400000 0.0 0.0
2.405000 0.0 0.0
2.410000 0.0 0.0
2.415000 0.0 0.0
2.420000 0.0 0.0
2.425000 0.0 0.0
2.430000 0.0 0.0
2.435000 0.0 0.0
2.440000 0.0 0.0
2.445000 0.0 0.0
2.450000 0.0 0.0
2.455000 0.0 0.0
2.460000 0.0 0.0
2.465000 0.0 0.0
2.470000 0.0 0.0
2.475000 0.0 0.0
2.480000 0.0 0.0
2.485000 0.0 0.0
2.490000 0.0 0.0
2.495000 0.0 0.0
2.500000 0.0 0.0
2.505000 0.0 0.0
2.510000 0.0 0.0
2.515000 0.0 0.0
2.520000 0.0 0.0
2.525000 0.0 0.0
2.530000 0.0 0.0
2.535000 0.0 0.0
2.540000 0.0 0.0
2.545000 0.0 0.0
2.550000 0.0 0.0
2.555000 0.0 0.0
2.560000 0.0 0.0
2.565000 0.0 0.0
2.570000 0.0 0.0
2.575000 0.0 0.0
2.580000 0.0 0.0
2.585000 0.0 0.0
2.590000 0.0 0.0
2.595000 0.0 0.0
2.600000 0.0 0.0
2.605000 0.0 0.0
2.610000 0.0 0.0
2.615000 0.0 0.0
2.620000 0.0 0.0
2.625000 0.0 0.0
2.630000 0.0 0.0
2.635000 0.0 0.0
2.640000 0.0 0.0
2.645000 0.0 0.0
2.650000 0.0 0.0
2.655000 0.0 0.0
2.660000 0.0 0.0
2.665000 0.0 0.0
2.670000 0.0 0.0
2.675000 0.0 0.0
2.680000 0.0 0.0
2.685000 0.0 0.0
2.690000 0.0 0.0
2.695000 0.0 0.0
2.700000 0.0 0.0
2.705000 0.0 0.0
2.710000 0.0 0.0
2.715000 0.0 0.0
2.720000 0.0 0.0
2.725000 0.0 0.0
2.730000 0.0 0.0
2.735000 0.0 0.0
2.740000 0.0 0.0
2.745000 0.0 0.0
2.750000 0.0 0.0
2.755000 0.0 0.0
2.760000 0.0 0.0
2.765000 0.0 0.0
2.770000 0.0 0.0
2.775000 0.0 0.0
2.780000 0.0 0.0
2.785000 0.0 0.0
2.790000 0.0 0.0
2.795000 0.0 0.0
2.800000 0.0 0.0
2.805000 0.0 0.0
2.810000 0.0 0.0
2.815000 0.0 0.0
2.820000 0.0 0.0
2.825000 0.0 0.0
2.830000 0.0 0.0
2.835000 0.0 0.0
2.840000 0.0 0.0
2.845000 0.0 0.0
2.850000 0.0 0.0
2.855000 0.0 0.0
2.860000 0.0 0.0
[...]
      <PointData Scalars="Temperature">
        <DataArray type="Float32" Name="Temperature" format="ascii">
308.150000
307.257681
306.365526
305.473700
304.582366
303.691689
302.801832
301.912957
301.025228
300.138806
299.253851
298.370526
297.488988
296.609396
295.731908
294.856681
293.983868
293.113625
292.246103
291.381453
290.519825
289.661368
288.806227
287.954547
287.106471
286.262141
285.421695
284.585272
283.753006
282.925032
282.101481
281.282483
280.468165
279.658652
278.854069
278.054535
277.260169
276.471088
275.687407
274.909405
274.144787
273.521262
273.207141
273.038526
272.923817
272.834347
272.758967
272.692374
272.631670
272.575116
272.521595
272.470352
272.420854
272.372718
272.325658
272.279458
272.233954
272.189017
272.144547
272.100465
272.056708
272.013225
271.969978
271.926934
271.884067
271.841356
271.798784
271.756339
271.714010
271.671787
271.629665
271.587637
271.545700
271.503850
271.462084
271.420401
271.378799
271.337277
271.295834
271.254470
271.213185
271.171979
271.130852
271.089804
271.048835
271.007946
270.967138
270.926411
270.885766
270.845202
270.804722
270.764325
270.724012
270.683785
270.643643
270.603587
270.563619
270.523738
270.483946
270.444243
270.404630
270.365108
270.325677
270.286339
270.247093
270.207941
270.168883
270.129921
270.091053
270.052283
270.013609
269.975033
269.936555
269.898176
269.859897
269.821718
269.783641
269.745664
269.707790
269.670019
269.632352
269.594788
269.557329
269.519976
269.482728
269.445587
269.408553
269.371626
269.334808
269.298098
269.261498
269.225008
269.188627
269.152358
269.116200
269.080154
269.044221
269.008400
268.972693
268.937100
268.901622
268.866258
268.831009
268.795877
268.760860
268.725961
268.691178
268.656513
268.621967
268.587538
268.553229
268.519038
268.484968
268.451017
268.417187
268.383477
268.349889
268.316422
268.283078
268.249855
268.216755
268.183778
268.150924
268.118194
268.085587
268.053105
268.020747
267.988514
267.956406
267.924423
267.892566
267.860835
267.829230
267.797751
267.766399
267.735174
267.704076
267.673105
267.642261
267.611545
267.580957
267.550498
267.520166
267.489963
267.459889
267.429943
267.400127
267.370439
267.340881
267.311452
267.282153
267.252983
267.223943
267.195033
267.166253
267.137603
267.109084
267.080694
267.052435
267.024306
266.996308
266.968440
266.940703
266.913096
266.885621
266.858275
266.831061
266.803977
266.777024
266.750202
266.723511
266.696950
266.670520
266.644221
266.618053
266.592015
266.566108
266.540331
266.514685
266.489170
266.463785
266.438530
266.413405
266.388411
266.363547
266.338813
266.314209
266.289735
266.265391
266.241176
266.217091
266.193135
266.169308
266.145611
266.122042
266.098602
266.075291
266.052109
266.029055
266.006129
265.983331
265.960661
265.938119
265.915704
265.893417
265.871257
265.849223
265.827316
265.805536
265.783882
265.762354
265.740952
265.719675
265.698524
265.677498
265.656597
265.635821
265.615168
265.594640
265.574236
265.553955
265.533798
265.513764
265.493852
265.474063
265.454396
265.434852
265.415428
265.396126
265.376945
265.357885
265.338945
265.320125
265.301425
265.282844
265.264383
265.246040
265.227816
265.209709
265.191721
265.173850
265.156096
265.138459
265.120938
265.103533
265.086244
265.069070
265.052011
265.035066
265.018236
265.001520
264.984917
264.968427
264.952050
264.935785
264.919632
264.903591
264.887660
264.871841
264.856131
264.840532
264.825042
264.809661
264.794389
264.779226
264.764170
264.749222
264.734380
264.719646
264.705017
264.690495
264.676077
264.661765
264.647557
264.633453
264.619453
264.605556
264.591762
264.578070
264.564481
264.550992
264.537605
264.524318
264.511131
264.498044
264.485057
264.472168
264.459377
264.446684
264.434089
264.421591
264.409189
264.396883
264.384673
264.372558
264.360538
264.348612
264.336779
264.325040
264.313394
264.301841
264.290379
264.279008
264.267729
264.256540
264.245442
264.234432
264.223512
264.212681
264.201938
264.191282
264.180714
264.170233
264.159838
264.149529
264.139305
264.129166
264.119111
264.109141
264.099254
264.089450
264.079729
264.070089
264.060532
264.051055
264.041659
264.032344
264.023108
264.013951
264.004873
263.995874
263.986952
263.978108
263.969341
263.960650
263.952036
263.943496
263.935032
263.926643
263.918328
263.910086
263.901918
263.893822
263.885799
263.877847
263.869967
263.862158
263.854419
263.846750
263.839151
263.831621
263.824160
263.816767
263.809441
263.802183
263.794992
263.787867
263.780808
263.773814
263.766886
263.760022
263.753222
263.746486
263.739814
263.733204
263.726656
263.720171
263.713747
263.707384
263.701081
263.694839
263.688657
263.682534
263.676470
263.670464
263.664517
263.658627
263.652794
263.647019
263.641299
263.635636
263.630028
263.624475
263.618977
263.613533
263.608143
263.602807
263.597523
263.592293
263.587114
263.581988
263.576912
263.571888
263.566915
263.561992
263.557118
263.552294
263.547520
263.542793
263.538116
263.533486
263.528903
263.524368
263.519880
263.515437
263.511041
263.506691
263.502386
263.498125
263.493909
263.489738
263.485610
263.481525
263.477484
263.473485
263.469528
263.465614
263.461741
263.457909
263.454119
263.450368
263.446658
263.442988
263.439358
263.435766
263.432214
263.428699
263.425223
263.421785
263.418385
263.415021
263.411694
263.408404
263.405150
263.401932
263.398749
263.395602
263.392489
263.389411
263.386367
263.383357
263.380381
263.377438
263.374528
263.371651
263.368806
263.365994
263.363213
263.360464
263.357745
263.355058
263.352402
263.349775
263.347179
263.344613
263.342076
263.339568
263.337090
263.334639
263.332218
263.329824
263.327458
263.325120
263.322809
263.320525
263.318268
263.316037
263.313832
263.311654
263.309501
263.307374
263.305272
263.303194
263.301142
263.299114
263.297110
263.295130
263.293174
263.291242
263.289332
263.287446
263.285582
263.283741
263.281922
263.280126
263.278351
263.276598
263.274866
263.273155
263.271465
263.269796
263.268148
263.266520
263.264912
263.263324
263.261755
263.260206
263.258677
263.257166
263.255674
263.254201
263.252746
263.251309
263.249891
263.248490
263.247107
263.245742
263.244393
263.243062
263.241748
263.240450
263.239169
263.237905
263.236656
263.235424
263.234207
263.233006
263.231820
263.230650
263.229495
263.228354
263.227229
263.226118
263.225021
263.223939
263.222871
263.221817
263.220777
263.219750
263.218737
263.217737
263.216750
263.215777
263.214816
263.213868
263.212932
263.212009
263.211098
263.210200
263.209313
263.208438
263.207575
263.206724
263.205884
263.205055
263.204237
263.203431
263.202635
263.201850
263.201076
263.200312
263.199559
263.198816
263.198083
263.197360
263.196647
263.195944
263.195251
263.194567
263.193892
263.193227
263.192571
263.191924
263.191286
263.190656
263.190036
263.189424
263.188821
263.188226
263.187640
263.187061
263.186491
263.185929
263.185375
263.184828
263.184289
263.183758
263.183235
263.182718
263.182210
263.181708
263.181213
263.180726
263.180245
263.179772
263.179305
263.178845
263.178391
263.177944
263.177503
263.177069
263.176641
263.176219
263.175803
263.175394
263.174990
263.174592
263.174200
263.173813
263.173433
263.173057
263.172688
263.172323
263.171964
263.171610
263.171262
263.170918
263.170580
263.170247
263.169918
263.169594
263.169276
263.168961
263.168652
263.168347
263.168047
263.167751
263.167459
263.167172
263.166889
263.166610
263.166336
263.166065
263.165799
263.165537
263.165278
263.165024
263.164773
263.164526
263.164283
263.164043
263.163807
263.163574
263.163345
263.163120
263.162898
263.162679
263.162463
263.162251
263.162042
263.161836
263.161634
263.161434
263.161237
263.161044
263.160853
263.160665
263.160480
263.160298
263.160118
263.159942
263.159768
263.159596
263.159427
263.159261
263.159097
263.158936
263.158777
263.158621
263.158467
263.158315
263.158165
263.158018
263.157873
263.157730
263.157590
263.157451
263.157315
263.157180
263.157048
263.156917
263.156789
263.156662
263.156538
263.156415
263.156294
263.156174
263.156057
263.155941
263.155827
263.155715
263.155604
263.155495
263.155387
263.155281
263.155176
263.155073
263.154972
263.154872
263.154773
263.154676
263.154580
263.154485
263.154392
263.154300
263.154209
263.154120
263.154032
263.153945
263.153859
263.153774
263.153690
263.153608
263.153526
263.153446
263.153366
263.153288
263.153211
263.153134
263.153059
263.152984
263.152910
263.152838
263.152766
263.152694
263.152624
263.152555
263.152486
263.152418
263.152351
263.152284
263.152218
263.152153
263.152089
263.152025
263.151962
263.151899
263.151837
263.151775
263.151715
263.151654
263.151594
263.151535
263.151476
263.151417
263.151359
263.151302
263.151244
263.151188
263.151131
263.151075
263.151019
263.150964
263.150909
263.150854
263.150799
263.150745
263.150690
263.150637
263.150583
263.150529
263.150476
263.150423
263.150369
263.150316
263.150264
263.150211
263.150158
263.150105
263.150053
263.150000
        </DataArray>
      </PointData>
      <CellData>
      </CellData>
    </Piece>
  </UnstructuredGrid>
</VTKFile>
