<?xml version="1.0"?>
<VTKFile type="UnstructuredGrid" version="0.1" byte_order="LittleEndian">
  <UnstructuredGrid>
    <Piece NumberOfPoints="801" NumberOfCells="800">
      <Points>
        <DataArray type="Float32" NumberOfComponents="3" format="ascii">
0.000000 0.0 0.0
0.005000 0.0 0.0
0.010000 0.0 0.0
0.015000 0.0 0.0
0.020000 0.0 0.0
0.025000 0.0 0.0
0.030000 0.0 0.0
0.035000 0.0 0.0
0.040000 0.0 0.0
0.045000 0.0 0.0
0.050000 0.0 0.0
0.055000 0.0 0.0
0.060000 0.0 0.0
0.065000 0.0 0.0
0.070000 0.0 0.0
0.075000 0.0 0.0
0.080000 0.0 0.0
0.085000 0.0 0.0
0.090000 0.0 0.0
0.095000 0.0 0.0
0.100000 0.0 0.0
0.105000 0.0 0.0
0.110000 0.0 0.0
0.115000 0.0 0.0
0.120000 0.0 0.0
0.125000 0.0 0.0
0.130000 0.0 0.0
0.135000 0.0 0.0
0.140000 0.0 0.0
0.145000 0.0 0.0
0.150000 0.0 0.0
0.155000 0.0 0.0
0.160000 0.0 0.0
0.165000 0.0 0.0
0.170000 0.0 0.0
0.175000 0.0 0.0
0.180000 0.0 0.0
0.185000 0.0 0.0
0.190000 0.0 0.0
0.195000 0.0 0.0
0.200000 0.0 0.0
0.205000 0.0 0.0
0.210000 0.0 0.0
0.215000 0.0 0.0
0.220000 0.0 0.0
0.225000 0.0 0.0
0.230000 0.0 0.0
0.235000 0.0 0.0
0.240000 0.0 0.0
0.245000 0.0 0.0
0.250000 0.0 0.0
0.255000 0.0 0.0
0.260000 0.0 0.0
0.265000 0.0 0.0
0.270000 0.0 0.0
0.275000 0.0 0.0
0.280000 0.0 0.0
0.285000 0.0 0.0
0.290000 0.0 0.0
0.295000 0.0 0.0
0.300000 0.0 0.0
0.305000 0.0 0.0
0.310000 0.0 0.0
0.315000 0.0 0.0
0.320000 0.0 0.0
0.325000 0.0 0.0
0.330000 0.0 0.0
0.335000 0.0 0.0
0.340000 0.0 0.0
0.345000 0.0 0.0
0.350000 0.0 0.0
0.355000 0.0 0.0
0.360000 0.0 0.0
0.365000 0.0 0.0
0.370000 0.0 0.0
0.375000 0.0 0.0
0.380000 0.0 0.0
0.385000 0.0 0.0
0.390000 0.0 0.0
0.395000 0.0 0.0
0.400000 0.0 0.0
0.405000 0.0 0.0
0.410000 0.0 0.0
0.415000 0.0 0.0
0.420000 0.0 0.0
0.425000 0.0 0.0
0.430000 0.0 0.0
0.435000 0.0 0.0
0.440000 0.0 0.0
0.445000 0.0 0.0
0.450000 0.0 0.0
0.455000 0.0 0.0
0.460000 0.0 0.0
0.465000 0.0 0.0
0.470000 0.0 0.0
0.475000 0.0 0.0
0.480000 0.0 0.0
0.485000 0.0 0.0
0.490000 0.0 0.0
0.495000 0.0 0.0
0.500000 0.0 0.0
0.505000 0.0 0.0
0.510000 0.0 0.0
0.515000 0.0 0.0
0.520000 0.0 0.0
0.525000 0.0 0.0
0.530000 0.0 0.0
0.535000 0.0 0.0
0.540000 0.0 0.0
0.545000 0.0 0.0
0.550000 0.0 0.0
0.555000 0.0 0.0
0.560000 0.0 0.0
0.565000 0.0 0.0
0.570000 0.0 0.0
0.575000 0.0 0.0
0.580000 0.0 0.0
0.585000 0.0 0.0
0.590000 0.0 0.0
0.595000 0.0 0.0
0.600000 0.0 0.0
0.605000 0.0 0.0
0.610000 0.0 0.0
0.615000 0.0 0.0
0.620000 0.0 0.0
0.625000 0.0 0.0
0.630000 0.0 0.0
0.635000 0.0 0.0
0.640000 0.0 0.0
0.645000 0.0 0.0
0.650000 0.0 0.0
0.655000 0.0 0.0
0.660000 0.0 0.0
0.665000 0.0 0.0
0.670000 0.0 0.0
0.675000 0.0 0.0
0.680000 0.0 0.0
0.685000 0.0 0.0
0.690000 0.0 0.0
0.695000 0.0 0.0
0.700000 0.0 0.0
0.705000 0.0 0.0
0.710000 0.0 0.0
0.715000 0.0 0.0
0.720000 0.0 0.0
0.725000 0.0 0.0
0.730000 0.0 0.0
0.735000 0.0 0.0
0.740000 0.0 0.0
0.745000 0.0 0.0
0.750000 0.0 0.0
0.755000 0.0 0.0
0.760000 0.0 0.0
0.765000 0.0 0.0
0.770000 0.0 0.0
0.775000 0.0 0.0
0.780000 0.0 0.0
0.785000 0.0 0.0
0.790000 0.0 0.0
0.795000 0.0 0.0
0.800000 0.0 0.0
0.805000 0.0 0.0
0.810000 0.0 0.0
0.815000 0.0 0.0
0.820000 0.0 0.0
0.825000 0.0 0.0
0.830000 0.0 0.0
0.835000 0.0 0.0
0.840000 0.0 0.0
0.845000 0.0 0.0
0.850000 0.0 0.0
0.855000 0.0 0.0
0.860000 0.0 0.0
0.865000 0.0 0.0
0.870000 0.0 0.0
0.875000 0.0 0.0
0.880000 0.0 0.0
0.885000 0.0 0.0
0.890000 0.0 0.0
0.895000 0.0 0.0
0.900000 0.0 0.0
0.905000 0.0 0.0
0.910000 0.0 0.0
0.915000 0.0 0.0
0.920000 0.0 0.0
0.925000 0.0 0.0
0.930000 0.0 0.0
0.935000 0.0 0.0
0.940000 0.0 0.0
0.945000 0.0 0.0
0.950000 0.0 0.0
0.955000 0.0 0.0
0.960000 0.0 0.0
0.965000 0.0 0.0
0.970000 0.0 0.0
0.975000 0.0 0.0
0.980000 0.0 0.0
0.985000 0.0 0.0
0.990000 0.0 0.0
0.995000 0.0 0.0
1.000000 0.0 0.0
1.005000 0.0 0.0
1.010000 0.0 0.0
1.015000 0.0 0.0
1.020000 0.0 0.0
1.025000 0.0 0.0
1.030000 0.0 0.0
1.035000 0.0 0.0
1.040000 0.0 0.0
1.045000 0.0 0.0
1.050000 0.0 0.0
1.055000 0.0 0.0
1.060000 0.0 0.0
1.065000 0.0 0.0
1.070000 0.0 0.0
1.075000 0.0 0.0
1.080000 0.0 0.0
1.085000 0.0 0.0
1.090000 0.0 0.0
1.095000 0.0 0.0
1.100000 0.0 0.0
1.105000 0.0 0.0
1.110000 0.0 0.0
1.115000 0.0 0.0
1.120000 0.0 0.0
1.125000 0.0 0.0
1.130000 0.0 0.0
1.135000 0.0 0.0
1.140000 0.0 0.0
1.145000 0.0 0.0
1.150000 0.0 0.0
1.155000 0.0 0.0
1.160000 0.0 0.0
1.165000 0.0 0.0
1.170000 0.0 0.0
1.175000 0.0 0.0
1.180000 0.0 0.0
1.185000 0.0 0.0
1.190000 0.0 0.0
1.195000 0.0 0.0
1.200000 0.0 0.0
1.205000 0.0 0.0
1.210000 0.0 0.0
1.215000 0.0 0.0
1.220000 0.0 0.0
1.225000 0.0 0.0
1.230000 0.0 0.0
1.235000 0.0 0.0
1.240000 0.0 0.0
1.245000 0.0 0.0
1.250000 0.0 0.0
1.255000 0.0 0.0
1.260000 0.0 0.0
1.265000 0.0 0.0
1.270000 0.0 0.0
1.275000 0.0 0.0
1.280000 0.0 0.0
1.285000 0.0 0.0
1.290000 0.0 0.0
1.295000 0.0 0.0
1.300000 0.0 0.0
1.305000 0.0 0.0
1.310000 0.0 0.0
1.315000 0.0 0.0
1.320000 0.0 0.0
1.325000 0.0 0.0
1.330000 0.0 0.0
1.335000 0.0 0.0
1.340000 0.0 0.0
1.345000 0.0 0.0
1.350000 0.0 0.0
1.355000 0.0 0.0
1.360000 0.0 0.0
1.365000 0.0 0.0
1.370000 0.0 0.0
1.375000 0.0 0.0
1.380000 0.0 0.0
1.385000 0.0 0.0
1.390000 0.0 0.0
1.395000 0.0 0.0
1.400000 0.0 0.0
1.405000 0.0 0.0
1.410000 0.0 0.0
1.415000 0.0 0.0
1.420000 0.0 0.0
1.425000 0.0 0.0
1.430000 0.0 0.0
1.435000 0.0 0.0
1.440000 0.0 0.0
1.445000 0.0 0.0
1.450000 0.0 0.0
1.455000 0.0 0.0
1.460000 0.0 0.0
1.465000 0.0 0.0
1.470000 0.0 0.0
1.475000 0.0 0.0
1.480000 0.0 0.0
1.485000 0.0 0.0
1.490000 0.0 0.0
1.495000 0.0 0.0
1.500000 0.0 0.0
1.505000 0.0 0.0
1.510000 0.0 0.0
1.515000 0.0 0.0
1.520000 0.0 0.0
1.525000 0.0 0.0
1.530000 0.0 0.0
1.535000 0.0 0.0
1.540000 0.0 0.0
1.545000 0.0 0.0
1.550000 0.0 0.0
1.555000 0.0 0.0
1.560000 0.0 0.0
1.565000 0.0 0.0
1.570000 0.0 0.0
1.575000 0.0 0.0
1.580000 0.0 0.0
1.585000 0.0 0.0
1.590000 0.0 0.0
1.595000 0.0 0.0
1.600000 0.0 0.0
1.605000 0.0 0.0
1.610000 0.0 0.0
1.615000 0.0 0.0
1.620000 0.0 0.0
1.625000 0.0 0.0
1.630000 0.0 0.0
1.635000 0.0 0.0
1.640000 0.0 0.0
1.645000 0.0 0.0
1.650000 0.0 0.0
1.655000 0.0 0.0
1.660000 0.0 0.0
1.665000 0.0 0.0
1.670000 0.0 0.0
1.675000 0.0 0.0
1.680000 0.0 0.0
1.685000 0.0 0.0
1.690000 0.0 0.0
1.695000 0.0 0.0
1.700000 0.0 0.0
1.705000 0.0 0.0
1.710000 0.0 0.0
1.715000 0.0 0.0
1.720000 0.0 0.0
1.725000 0.0 0.0
1.730000 0.0 0.0
1.735000 0.0 0.0
1.740000 0.0 0.0
1.745000 0.0 0.0
1.750000 0.0 0.0
1.755000 0.0 0.0
1.760000 0.0 0.0
1.765000 0.0 0.0
1.770000 0.0 0.0
1.775000 0.0 0.0
1.780000 0.0 0.0
1.785000 0.0 0.0
1.790000 0.0 0.0
1.795000 0.0 0.0
1.800000 0.0 0.0
1.805000 0.0 0.0
1.810000 0.0 0.0
1.815000 0.0 0.0
1.820000 0.0 0.0
1.825000 0.0 0.0
1.830000 0.0 0.0
1.835000 0.0 0.0
1.840000 0.0 0.0
1.845000 0.0 0.0
1.850000 0.0 0.0
1.855000 0.0 0.0
1.860000 0.0 0.0
1.865000 0.0 0.0
1.870000 0.0 0.0
1.875000 0.0 0.0
1.880000 0.0 0.0
1.885000 0.0 0.0
1.890000 0.0 0.0
1.895000 0.0 0.0
1.900000 0.0 0.0
1.905000 0.0 0.0
1.910000 0.0 0.0
1.915000 0.0 0.0
1.920000 0.0 0.0
1.925000 0.0 0.0
1.930000 0.0 0.0
1.935000 0.0 0.0
1.940000 0.0 0.0
1.945000 0.0 0.0
1.950000 0.0 0.0
1.955000 0.0 0.0
1.960000 0.0 0.0
1.965000 0.0 0.0
1.970000 0.0 0.0
1.975000 0.0 0.0
1.980000 0.0 0.0
1.985000 0.0 0.0
1.990000 0.0 0.0
1.995000 0.0 0.0
2.000000 0.0 0.0
2.005000 0.0 0.0
2.010000 0.0 0.0
2.015000 0.0 0.0
2.020000 0.0 0.0
2.025000 0.0 0.0
2.030000 0.0 0.0
2.035000 0.0 0.0
2.040000 0.0 0.0
2.045000 0.0 0.0
2.050000 0.0 0.0
2.055000 0.0 0.0
2.060000 0.0 0.0
2.065000 0.0 0.0
2.070000 0.0 0.0
2.075000 0.0 0.0
2.080000 0.0 0.0
2.085000 0.0 0.0
2.090000 0.0 0.0
2.095000 0.0 0.0
2.100000 0.0 0.0
2.105000 0.0 0.0
2.110000 0.0 0.0
2.115000 0.0 0.0
2.120000 0.0 0.0
2.125000 0.0 0.0
2.130000 0.0 0.0
2.135000 0.0 0.0
2.140000 0.0 0.0
2.145000 0.0 0.0
2.150000 0.0 0.0
2.155000 0.0 0.0
2.160000 0.0 0.0
2.165000 0.0 0.0
2.170000 0.0 0.0
2.175000 0.0 0.0
2.180000 0.0 0.0
2.185000 0.0 0.0
2.190000 0.0 0.0
2.195000 0.0 0.0
2.200000 0.0 0.0
2.205000 0.0 0.0
2.210000 0.0 0.0
2.215000 0.0 0.0
2.220000 0.0 0.0
2.225000 0.0 0.0
2.230000 0.0 0.0
2.235000 0.0 0.0
2.240000 0.0 0.0
2.245000 0.0 0.0
2.250000 0.0 0.0
2.255000 0.0 0.0
2.260000 0.0 0.0
2.265000 0.0 0.0
2.270000 0.0 0.0
2.275000 0.0 0.0
2.280000 0.0 0.0
2.285000 0.0 0.0
2.290000 0.0 0.0
2.295000 0.0 0.0
2.300000 0.0 0.0
2.305000 0.0 0.0
2.310000 0.0 0.0
2.315000 0.0 0.0
2.320000 0.0 0.0
2.325000 0.0 0.0
2.330000 0.0 0.0
2.335000 0.0 0.0
2.340000 0.0 0.0
2.345000 0.0 0.0
2.350000 0.0 0.0
2.355000 0.0 0.0
2.360000 0.0 0.0
2.365000 0.0 0.0
2.370000 0.0 0.0
2.375000 0.0 0.0
2.380000 0.0 0.0
2.385000 0.0 0.0
2.390000 0.0 0.0
2.395000 0.0 0.0
2.400000 0.0 0.0
2.405000 0.0 0.0
2.410000 0.0 0.0
2.415000 0.0 0.0
2.420000 0.0 0.0
2.425000 0.0 0.0
2.430000 0.0 0.0
2.435000 0.0 0.0
2.440000 0.0 0.0
2.445000 0.0 0.0
2.450000 0.0 0.0
2.455000 0.0 0.0
2.460000 0.0 0.0
2.465000 0.0 0.0
2.470000 0.0 0.0
2.475000 0.0 0.0
2.480000 0.0 0.0
2.485000 0.0 0.0
2.490000 0.0 0.0
2.495000 0.0 0.0
2.500000 0.0 0.0
2.505000 0.0 0.0
2.510000 0.0 0.0
2.515000 0.0 0.0
2.520000 0.0 0.0
2.525000 0.0 0.0
2.530000 0.0 0.0
2.535000 0.0 0.0
2.540000 0.0 0.0
2.545000 0.0 0.0
2.550000 0.0 0.0
2.555000 0.0 0.0
2.560000 0.0 0.0
2.565000 0.0 0.0
2.570000 0.0 0.0
2.575000 0.0 0.0
2.580000 0.0 0.0
2.585000 0.0 0.0
2.590000 0.0 0.0
2.595000 0.0 0.0
2.600000 0.0 0.0
2.605000 0.0 0.0
2.610000 0.0 0.0
2.615000 0.0 0.0
2.620000 0.0 0.0
2.625000 0.0 0.0
2.630000 0.0 0.0
2.635000 0.0 0.0
2.640000 0.0 0.0
2.645000 0.0 0.0
2.650000 0.0 0.0
2.655000 0.0 0.0
2.660000 0.0 0.0
2.665000 0.0 0.0
2.670000 0.0 0.0
2.675000 0.0 0.0
2.680000 0.0 0.0
2.685000 0.0 0.0
2.690000 0.0 0.0
2.695000 0.0 0.0
2.700000 0.0 0.0
2.705000 0.0 0.0
2.710000 0.0 0.0
2.715000 0.0 0.0
2.720000 0.0 0.0
2.725000 0.0 0.0
2.730000 0.0 0.0
2.735000 0.0 0.0
2.740000 0.0 0.0
2.745000 0.0 0.0
2.750000 0.0 0.0
2.755000 0.0 0.0
2.760000 0.0 0.0
2.765000 0.0 0.0
2.770000 0.0 0.0
2.775000 0.0 0.0
2.780000 0.0 0.0
2.785000 0.0 0.0
2.790000 0.0 0.0
2.795000 0.0 0.0
2.800000 0.0 0.0
2.805000 0.0 0.0
2.810000 0.0 0.0
2.815000 0.0 0.0
2.820000 0.0 0.0
2.825000 0.0 0.0
2.830000 0.0 0.0
2.835000 0.0 0.0
2.840000 0.0 0.0
2.845000 0.0 0.0
2.850000 0.0 0.0
2.855000 0.0 0.0
2.860000 0.0 0.0
[...]
      <PointData Scalars="Temperature">
        <DataArray type="Float32" Name="Temperature" format="ascii">
308.150000
307.013141
305.876617
304.740761
303.605907
302.472387
301.340533
300.210675
299.083142
297.958259
296.836353
295.717743
294.602751
293.491692
292.384879
291.282622
290.185227
289.092997
288.006228
286.925216
285.850249
284.781610
283.719578
282.664426
281.616420
280.575819
279.542876
278.517834
277.500927
276.492379
275.492414
274.503020
273.628791
273.208296
273.008832
272.878114
272.776565
272.690399
272.613434
272.542422
272.475466
272.411379
272.349377
272.288924
272.229642
272.171258
272.113576
272.056449
271.999768
271.943452
271.887439
271.831685
271.776154
271.720821
271.665666
271.610675
271.555837
271.501145
271.446593
271.392178
271.337897
271.283749
271.229732
271.175847
271.122095
271.068476
271.014990
270.961640
270.908426
270.855350
270.802413
270.749617
270.696964
270.644454
270.592091
270.539874
270.487807
270.435891
270.384127
270.332517
270.281063
270.229766
270.178628
270.127650
270.076835
270.026183
269.975697
269.925377
269.875225
269.825244
269.775433
269.725796
269.676332
269.627044
269.577933
269.529000
269.480248
269.431676
269.383286
269.335081
269.287060
269.239226
269.191579
269.144121
269.096852
269.049775
269.002891
268.956199
268.909703
268.863401
268.817297
268.771391
268.725683
268.680175
268.634868
268.589763
268.544860
268.500162
268.455668
268.411379
268.367297
268.323423
268.279756
268.236298
268.193050
268.150013
268.107186
268.064572
268.022170
267.979981
267.938006
267.896246
267.854702
267.813373
267.772260
267.731364
267.690686
267.650226
267.609985
267.569962
267.530159
267.490575
267.451212
267.412070
267.373148
267.334448
267.295970
267.257713
267.219679
267.181867
267.144279
267.106913
267.069770
267.032851
266.996156
266.959684
266.923436
266.887412
266.851613
266.816037
266.780686
266.745558
266.710655
266.675977
266.641522
266.607292
266.573286
266.539504
266.505946
266.472611
266.439501
266.406614
266.373950
266.341509
266.309292
266.277297
266.245525
266.213975
266.182647
266.151541
266.120657
266.089993
266.059551
266.029328
265.999326
265.969544
265.939981
265.910636
265.881511
265.852603
265.823913
265.795440
265.767183
265.739143
265.711318
265.683708
265.656313
265.629132
265.602164
265.575409
265.548866
265.522535
265.496415
265.470505
265.444805
265.419314
265.394032
265.368957
265.344089
265.319428
265.294972
265.270721
265.246674
265.222831
265.199190
265.175751
265.152513
265.129476
265.106638
265.083999
265.061558
265.039314
265.017266
264.995413
264.973755
264.952291
264.931019
264.909940
264.889051
264.868353
264.847844
264.827523
264.807390
264.787443
264.767682
264.748105
264.728713
264.709503
264.690475
264.671627
264.652960
264.634472
264.616161
264.598028
264.580070
264.562288
264.544679
264.527244
264.509981
264.492888
264.475966
264.459212
264.442627
264.426208
264.409956
264.393868
264.377944
264.362183
264.346584
264.331145
264.315866
264.300746
264.285783
264.270977
264.256327
264.241831
264.227488
264.213298
264.199259
264.185370
264.171630
264.158039
264.144594
264.131296
264.118142
264.105133
264.092266
264.079541
264.066957
264.054512
264.042206
264.030037
264.018005
264.006108
263.994346
263.982717
263.971220
263.959855
263.948619
263.937513
263.926535
263.915684
263.904958
263.894358
263.883881
263.873528
263.863296
263.853185
263.843194
263.833321
263.823566
263.813928
263.804406
263.794998
263.785703
263.776522
263.767452
263.758492
263.749643
263.740901
263.732268
263.723741
263.715319
263.707003
263.698790
263.690680
263.682671
263.674763
263.666955
263.659246
263.651635
263.644121
263.636703
263.629380
263.622151
263.615015
263.607972
263.601019
263.594158
263.587386
263.580702
263.574106
263.567597
263.561174
263.554836
263.548582
263.542412
263.536324
263.530317
263.524391
263.518545
263.512778
263.507089
263.501477
263.495942
263.490482
263.485097
263.479787
263.474549
263.469384
263.464290
263.459267
263.454314
263.449430
263.444614
263.439866
263.435185
263.430571
263.426021
263.421536
263.417115
263.412757
263.408461
263.404227
263.400054
263.395941
263.391887
263.387893
263.383956
263.380077
263.376254
263.372487
263.368776
263.365119
263.361517
263.357967
263.354471
263.351026
263.347633
263.344290
263.340998
263.337755
263.334560
263.331415
263.328316
263.325265
263.322260
263.319301
263.316387
263.313518
263.310693
263.307911
263.305173
263.302476
263.299822
263.297209
263.294636
263.292104
263.289611
263.287158
263.284743
263.282366
263.280027
263.277724
263.275459
263.273229
263.271035
263.268876
263.266752
263.264662
263.262605
263.260582
263.258591
263.256633
263.254706
263.252811
263.250947
263.249113
263.247310
263.245536
263.243791
263.242075
263.240387
263.238728
263.237095
263.235491
263.233912
263.232361
263.230835
263.229335
263.227860
263.226410
263.224985
263.223583
263.222206
263.220852
263.219521
263.218213
263.216927
263.215663
263.214421
263.213201
263.212001
263.210822
263.209664
263.208526
263.207407
263.206308
263.205229
263.204168
263.203126
263.202102
263.201096
263.200108
263.199138
263.198184
263.197248
263.196328
263.195425
263.194538
263.193667
263.192811
263.191971
263.191146
263.190336
263.189540
263.188759
263.187992
263.187239
263.186500
263.185774
263.185062
263.184363
263.183676
263.183002
263.182341
263.181692
263.181054
263.180429
263.179815
263.179213
263.178622
263.178042
263.177473
263.176914
263.176366
263.175828
263.175301
263.174783
263.174276
263.173777
263.173289
263.172809
263.172339
263.171878
263.171426
263.170982
263.170547
263.170120
263.169701
263.169291
263.168888
263.168493
263.168106
263.167727
263.167355
263.166990
263.166632
263.166281
263.165937
263.165600
263.165270
263.164946
263.164628
263.164317
263.164012
263.163713
263.163420
263.163133
263.162851
263.162576
263.162305
263.162040
263.161781
263.161526
263.161277
263.161033
263.160794
263.160559
263.160330
263.160105
263.159885
263.159669
263.159457
263.159250
263.159047
263.158849
263.158654
263.158463
263.158277
263.158094
263.157915
263.157740
263.157568
263.157400
263.157235
263.157074
263.156916
263.156762
263.156611
263.156463
263.156318
263.156176
263.156037
263.155901
263.155768
263.155638
263.155510
263.155386
263.155264
263.155144
263.155027
263.154913
263.154801
263.154691
263.154584
263.154479
263.154377
263.154276
263.154178
263.154082
263.153988
263.153896
263.153806
263.153718
263.153632
263.153548
263.153465
263.153385
263.153306
263.153229
263.153154
263.153080
263.153008
263.152937
263.152868
263.152801
263.152735
263.152671
263.152608
263.152546
263.152486
263.152427
263.152370
263.152314
263.152259
263.152205
263.152152
263.152101
263.152051
263.152002
263.151954
263.151907
263.151861
263.151817
263.151773
263.151730
263.151689
263.151648
263.151608
263.151569
263.151531
263.151494
263.151458
263.151422
263.151387
263.151354
263.151321
263.151288
263.151257
263.151226
263.151196
263.151167
263.151138
263.151110
263.151083
263.151056
263.151030
263.151004
263.150979
263.150955
263.150931
263.150908
263.150886
263.150864
263.150842
263.150821
263.150801
263.150781
263.150761
263.150742
263.150723
263.150705
263.150687
263.150670
263.150653
263.150637
263.150621
263.150605
263.150589
263.150575
263.150560
263.150546
263.150532
263.150518
263.150505
263.150492
263.150480
263.150467
263.150455
263.150444
263.150432
263.150421
263.150410
263.150400
263.150389
263.150379
263.150369
263.150360
263.150351
263.150341
263.150333
263.150324
263.150315
263.150307
263.150299
263.150291
263.150284
263.150276
263.150269
263.150262
263.150255
263.150248
263.150242
263.150236
263.150229
263.150223
263.150217
263.150212
263.150206
263.150200
263.150195
263.150190
263.150185
263.150180
263.150175
263.150170
263.150166
263.150161
263.150157
263.150153
263.150149
263.150145
263.150141
263.150137
263.150133
263.150130
263.150126
263.150123
263.150119
263.150116
263.150113
263.150110
263.150107
263.150104
263.150101
263.150098
263.150095
263.150093
263.150090
263.150088
263.150085
263.150083
263.150081
263.150078
263.150076
263.150074
263.150072
263.150070
263.150068
263.150066
263.150064
263.150062
263.150060
263.150059
263.150057
263.150055
263.150054
263.150052
263.150051
263.150049
263.150048
263.150046
263.150045
263.150044
263.150042
263.150041
263.150040
263.150038
263.150037
263.150036
263.150035
263.150034
263.150033
263.150032
263.150031
263.150030
263.150029
263.150028
263.150027
263.150026
263.150025
263.150024
263.150023
263.150022
263.150022
263.150021
263.150020
263.150019
263.150019
263.150018
263.150017
263.150016
263.150016
263.150015
263.150014
263.150014
263.150013
263.150012
263.150012
263.150011
263.150011
263.150010
263.150009
263.150009
263.150008
263.150008
263.150007
263.150006
263.150006
263.150005
263.150005
263.150004
263.150004
263.150003
263.150003
263.150002
263.150002
263.150001
263.150001
263.150000
        </DataArray>
      </PointData>
      <CellData>
      </CellData>
    </Piece>
  </UnstructuredGrid>
</VTKFile>
