<?xml version="1.0"?>
<VTKFile type="UnstructuredGrid" version="0.1" byte_order="LittleEndian">
  <UnstructuredGrid>
    <Piece NumberOfPoints="801" NumberOfCells="800">
      <Points>
        <DataArray type="Float32" NumberOfComponents="3" format="ascii">
0.000000 0.0 0.0
0.005000 0.0 0.0
0.010000 0.0 0.0
0.015000 0.0 0.0
0.020000 0.0 0.0
0.025000 0.0 0.0
0.030000 0.0 0.0
0.035000 0.0 0.0
0.040000 0.0 0.0
0.045000 0.0 0.0
0.050000 0.0 0.0
0.055000 0.0 0.0
0.060000 0.0 0.0
0.065000 0.0 0.0
0.070000 0.0 0.0
0.075000 0.0 0.0
0.080000 0.0 0.0
0.085000 0.0 0.0
0.090000 0.0 0.0
0.095000 0.0 0.0
0.100000 0.0 0.0
0.105000 0.0 0.0
0.110000 0.0 0.0
0.115000 0.0 0.0
0.120000 0.0 0.0
0.125000 0.0 0.0
0.130000 0.0 0.0
0.135000 0.0 0.0
0.140000 0.0 0.0
0.145000 0.0 0.0
0.150000 0.0 0.0
0.155000 0.0 0.0
0.160000 0.0 0.0
0.165000 0.0 0.0
0.170000 0.0 0.0
0.175000 0.0 0.0
0.180000 0.0 0.0
0.185000 0.0 0.0
0.190000 0.0 0.0
0.195000 0.0 0.0
0.200000 0.0 0.0
0.205000 0.0 0.0
0.210000 0.0 0.0
0.215000 0.0 0.0
0.220000 0.0 0.0
0.225000 0.0 0.0
0.230000 0.0 0.0
0.235000 0.0 0.0
0.240000 0.0 0.0
0.245000 0.0 0.0
0.250000 0.0 0.0
0.255000 0.0 0.0
0.260000 0.0 0.0
0.265000 0.0 0.0
0.270000 0.0 0.0
0.275000 0.0 0.0
0.280000 0.0 0.0
0.285000 0.0 0.0
0.290000 0.0 0.0
0.295000 0.0 0.0
0.300000 0.0 0.0
0.305000 0.0 0.0
0.310000 0.0 0.0
0.315000 0.0 0.0
0.320000 0.0 0.0
0.325000 0.0 0.0
0.330000 0.0 0.0
0.335000 0.0 0.0
0.340000 0.0 0.0
0.345000 0.0 0.0
0.350000 0.0 0.0
0.355000 0.0 0.0
0.360000 0.0 0.0
0.365000 0.0 0.0
0.370000 0.0 0.0
0.375000 0.0 0.0
0.380000 0.0 0.0
0.385000 0.0 0.0
0.390000 0.0 0.0
0.395000 0.0 0.0
0.400000 0.0 0.0
0.405000 0.0 0.0
0.410000 0.0 0.0
0.415000 0.0 0.0
0.420000 0.0 0.0
0.425000 0.0 0.0
0.430000 0.0 0.0
0.435000 0.0 0.0
0.440000 0.0 0.0
0.445000 0.0 0.0
0.450000 0.0 0.0
0.455000 0.0 0.0
0.460000 0.0 0.0
0.465000 0.0 0.0
0.470000 0.0 0.0
0.475000 0.0 0.0
0.480000 0.0 0.0
0.485000 0.0 0.0
0.490000 0.0 0.0
0.495000 0.0 0.0
0.500000 0.0 0.0
0.505000 0.0 0.0
0.510000 0.0 0.0
0.515000 0.0 0.0
0.520000 0.0 0.0
0.525000 0.0 0.0
0.530000 0.0 0.0
0.535000 0.0 0.0
0.540000 0.0 0.0
0.545000 0.0 0.0
0.550000 0.0 0.0
0.555000 0.0 0.0
0.560000 0.0 0.0
0.565000 0.0 0.0
0.570000 0.0 0.0
0.575000 0.0 0.0
0.580000 0.0 0.0
0.585000 0.0 0.0
0.590000 0.0 0.0
0.595000 0.0 0.0
0.600000 0.0 0.0
0.605000 0.0 0.0
0.610000 0.0 0.0
0.615000 0.0 0.0
0.620000 0.0 0.0
0.625000 0.0 0.0
0.630000 0.0 0.0
0.635000 0.0 0.0
0.640000 0.0 0.0
0.645000 0.0 0.0
0.650000 0.0 0.0
0.655000 0.0 0.0
0.660000 0.0 0.0
0.665000 0.0 0.0
0.670000 0.0 0.0
0.675000 0.0 0.0
0.680000 0.0 0.0
0.685000 0.0 0.0
0.690000 0.0 0.0
0.695000 0.0 0.0
0.700000 0.0 0.0
0.705000 0.0 0.0
0.710000 0.0 0.0
0.715000 0.0 0.0
0.720000 0.0 0.0
0.725000 0.0 0.0
0.730000 0.0 0.0
0.735000 0.0 0.0
0.740000 0.0 0.0
0.745000 0.0 0.0
0.750000 0.0 0.0
0.755000 0.0 0.0
0.760000 0.0 0.0
0.765000 0.0 0.0
0.770000 0.0 0.0
0.775000 0.0 0.0
0.780000 0.0 0.0
0.785000 0.0 0.0
0.790000 0.0 0.0
0.795000 0.0 0.0
0.800000 0.0 0.0
0.805000 0.0 0.0
0.810000 0.0 0.0
0.815000 0.0 0.0
0.820000 0.0 0.0
0.825000 0.0 0.0
0.830000 0.0 0.0
0.835000 0.0 0.0
0.840000 0.0 0.0
0.845000 0.0 0.0
0.850000 0.0 0.0
0.855000 0.0 0.0
0.860000 0.0 0.0
0.865000 0.0 0.0
0.870000 0.0 0.0
0.875000 0.0 0.0
0.880000 0.0 0.0
0.885000 0.0 0.0
0.890000 0.0 0.0
0.895000 0.0 0.0
0.900000 0.0 0.0
0.905000 0.0 0.0
0.910000 0.0 0.0
0.915000 0.0 0.0
0.920000 0.0 0.0
0.925000 0.0 0.0
0.930000 0.0 0.0
0.935000 0.0 0.0
0.940000 0.0 0.0
0.945000 0.0 0.0
0.950000 0.0 0.0
0.955000 0.0 0.0
0.960000 0.0 0.0
0.965000 0.0 0.0
0.970000 0.0 0.0
0.975000 0.0 0.0
0.980000 0.0 0.0
0.985000 0.0 0.0
0.990000 0.0 0.0
0.995000 0.0 0.0
1.000000 0.0 0.0
1.005000 0.0 0.0
1.010000 0.0 0.0
1.015000 0.0 0.0
1.020000 0.0 0.0
1.025000 0.0 0.0
1.030000 0.0 0.0
1.035000 0.0 0.0
1.040000 0.0 0.0
1.045000 0.0 0.0
1.050000 0.0 0.0
1.055000 0.0 0.0
1.060000 0.0 0.0
1.065000 0.0 0.0
1.070000 0.0 0.0
1.075000 0.0 0.0
1.080000 0.0 0.0
1.085000 0.0 0.0
1.090000 0.0 0.0
1.095000 0.0 0.0
1.100000 0.0 0.0
1.105000 0.0 0.0
1.110000 0.0 0.0
1.115000 0.0 0.0
1.120000 0.0 0.0
1.125000 0.0 0.0
1.130000 0.0 0.0
1.135000 0.0 0.0
1.140000 0.0 0.0
1.145000 0.0 0.0
1.150000 0.0 0.0
1.155000 0.0 0.0
1.160000 0.0 0.0
1.165000 0.0 0.0
1.170000 0.0 0.0
1.175000 0.0 0.0
1.180000 0.0 0.0
1.185000 0.0 0.0
1.190000 0.0 0.0
1.195000 0.0 0.0
1.200000 0.0 0.0
1.205000 0.0 0.0
1.210000 0.0 0.0
1.215000 0.0 0.0
1.220000 0.0 0.0
1.225000 0.0 0.0
1.230000 0.0 0.0
1.235000 0.0 0.0
1.240000 0.0 0.0
1.245000 0.0 0.0
1.250000 0.0 0.0
1.255000 0.0 0.0
1.260000 0.0 0.0
1.265000 0.0 0.0
1.270000 0.0 0.0
1.275000 0.0 0.0
1.280000 0.0 0.0
1.285000 0.0 0.0
1.290000 0.0 0.0
1.295000 0.0 0.0
1.300000 0.0 0.0
1.305000 0.0 0.0
1.310000 0.0 0.0
1.315000 0.0 0.0
1.320000 0.0 0.0
1.325000 0.0 0.0
1.330000 0.0 0.0
1.335000 0.0 0.0
1.340000 0.0 0.0
1.345000 0.0 0.0
1.350000 0.0 0.0
1.355000 0.0 0.0
1.360000 0.0 0.0
1.365000 0.0 0.0
1.370000 0.0 0.0
1.375000 0.0 0.0
1.380000 0.0 0.0
1.385000 0.0 0.0
1.390000 0.0 0.0
1.395000 0.0 0.0
1.400000 0.0 0.0
1.405000 0.0 0.0
1.410000 0.0 0.0
1.415000 0.0 0.0
1.420000 0.0 0.0
1.425000 0.0 0.0
1.430000 0.0 0.0
1.435000 0.0 0.0
1.440000 0.0 0.0
1.445000 0.0 0.0
1.450000 0.0 0.0
1.455000 0.0 0.0
1.460000 0.0 0.0
1.465000 0.0 0.0
1.470000 0.0 0.0
1.475000 0.0 0.0
1.480000 0.0 0.0
1.485000 0.0 0.0
1.490000 0.0 0.0
1.495000 0.0 0.0
1.500000 0.0 0.0
1.505000 0.0 0.0
1.510000 0.0 0.0
1.515000 0.0 0.0
1.520000 0.0 0.0
1.525000 0.0 0.0
1.530000 0.0 0.0
1.535000 0.0 0.0
1.540000 0.0 0.0
1.545000 0.0 0.0
1.550000 0.0 0.0
1.555000 0.0 0.0
1.560000 0.0 0.0
1.565000 0.0 0.0
1.570000 0.0 0.0
1.575000 0.0 0.0
1.580000 0.0 0.0
1.585000 0.0 0.0
1.590000 0.0 0.0
1.595000 0.0 0.0
1.600000 0.0 0.0
1.605000 0.0 0.0
1.610000 0.0 0.0
1.615000 0.0 0.0
1.620000 0.0 0.0
1.625000 0.0 0.0
1.630000 0.0 0.0
1.635000 0.0 0.0
1.640000 0.0 0.0
1.645000 0.0 0.0
1.650000 0.0 0.0
1.655000 0.0 0.0
1.660000 0.0 0.0
1.665000 0.0 0.0
1.670000 0.0 0.0
1.675000 0.0 0.0
1.680000 0.0 0.0
1.685000 0.0 0.0
1.690000 0.0 0.0
1.695000 0.0 0.0
1.700000 0.0 0.0
1.705000 0.0 0.0
1.710000 0.0 0.0
1.715000 0.0 0.0
1.720000 0.0 0.0
1.725000 0.0 0.0
1.730000 0.0 0.0
1.735000 0.0 0.0
1.740000 0.0 0.0
1.745000 0.0 0.0
1.750000 0.0 0.0
1.755000 0.0 0.0
1.760000 0.0 0.0
1.765000 0.0 0.0
1.770000 0.0 0.0
1.775000 0.0 0.0
1.780000 0.0 0.0
1.785000 0.0 0.0
1.790000 0.0 0.0
1.795000 0.0 0.0
1.800000 0.0 0.0
1.805000 0.0 0.0
1.810000 0.0 0.0
1.815000 0.0 0.0
1.820000 0.0 0.0
1.825000 0.0 0.0
1.830000 0.0 0.0
1.835000 0.0 0.0
1.840000 0.0 0.0
1.845000 0.0 0.0
1.850000 0.0 0.0
1.855000 0.0 0.0
1.860000 0.0 0.0
1.865000 0.0 0.0
1.870000 0.0 0.0
1.875000 0.0 0.0
1.880000 0.0 0.0
1.885000 0.0 0.0
1.890000 0.0 0.0
1.895000 0.0 0.0
1.900000 0.0 0.0
1.905000 0.0 0.0
1.910000 0.0 0.0
1.915000 0.0 0.0
1.920000 0.0 0.0
1.925000 0.0 0.0
1.930000 0.0 0.0
1.935000 0.0 0.0
1.940000 0.0 0.0
1.945000 0.0 0.0
1.950000 0.0 0.0
1.955000 0.0 0.0
1.960000 0.0 0.0
1.965000 0.0 0.0
1.970000 0.0 0.0
1.975000 0.0 0.0
1.980000 0.0 0.0
1.985000 0.0 0.0
1.990000 0.0 0.0
1.995000 0.0 0.0
2.000000 0.0 0.0
2.005000 0.0 0.0
2.010000 0.0 0.0
2.015000 0.0 0.0
2.020000 0.0 0.0
2.025000 0.0 0.0
2.030000 0.0 0.0
2.035000 0.0 0.0
2.040000 0.0 0.0
2.045000 0.0 0.0
2.050000 0.0 0.0
2.055000 0.0 0.0
2.060000 0.0 0.0
2.065000 0.0 0.0
2.070000 0.0 0.0
2.075000 0.0 0.0
2.080000 0.0 0.0
2.085000 0.0 0.0
2.090000 0.0 0.0
2.095000 0.0 0.0
2.100000 0.0 0.0
2.105000 0.0 0.0
2.110000 0.0 0.0
2.115000 0.0 0.0
2.120000 0.0 0.0
2.125000 0.0 0.0
2.130000 0.0 0.0
2.135000 0.0 0.0
2.140000 0.0 0.0
2.145000 0.0 0.0
2.150000 0.0 0.0
2.155000 0.0 0.0
2.160000 0.0 0.0
2.165000 0.0 0.0
2.170000 0.0 0.0
2.175000 0.0 0.0
2.180000 0.0 0.0
2.185000 0.0 0.0
2.190000 0.0 0.0
2.195000 0.0 0.0
2.200000 0.0 0.0
2.205000 0.0 0.0
2.210000 0.0 0.0
2.215000 0.0 0.0
2.220000 0.0 0.0
2.225000 0.0 0.0
2.230000 0.0 0.0
2.235000 0.0 0.0
2.240000 0.0 0.0
2.245000 0.0 0.0
2.250000 0.0 0.0
2.255000 0.0 0.0
2.260000 0.0 0.0
2.265000 0.0 0.0
2.270000 0.0 0.0
2.275000 0.0 0.0
2.280000 0.0 0.0
2.285000 0.0 0.0
2.290000 0.0 0.0
2.295000 0.0 0.0
2.300000 0.0 0.0
2.305000 0.0 0.0
2.310000 0.0 0.0
2.315000 0.0 0.0
2.320000 0.0 0.0
2.325000 0.0 0.0
2.330000 0.0 0.0
2.335000 0.0 0.0
2.340000 0.0 0.0
2.345000 0.0 0.0
2.350000 0.0 0.0
2.355000 0.0 0.0
2.360000 0.0 0.0
2.365000 0.0 0.0
2.370000 0.0 0.0
2.375000 0.0 0.0
2.380000 0.0 0.0
2.385000 0.0 0.0
2.390000 0.0 0.0
2.395000 0.0 0.0
2.400000 0.0 0.0
2.405000 0.0 0.0
2.410000 0.0 0.0
2.415000 0.0 0.0
2.420000 0.0 0.0
2.425000 0.0 0.0
2.430000 0.0 0.0
2.435000 0.0 0.0
2.440000 0.0 0.0
2.445000 0.0 0.0
2.450000 0.0 0.0
2.455000 0.0 0.0
2.460000 0.0 0.0
2.465000 0.0 0.0
2.470000 0.0 0.0
2.475000 0.0 0.0
2.480000 0.0 0.0
2.485000 0.0 0.0
2.490000 0.0 0.0
2.495000 0.0 0.0
2.500000 0.0 0.0
2.505000 0.0 0.0
2.510000 0.0 0.0
2.515000 0.0 0.0
2.520000 0.0 0.0
2.525000 0.0 0.0
2.530000 0.0 0.0
2.535000 0.0 0.0
2.540000 0.0 0.0
2.545000 0.0 0.0
2.550000 0.0 0.0
2.555000 0.0 0.0
2.560000 0.0 0.0
2.565000 0.0 0.0
2.570000 0.0 0.0
2.575000 0.0 0.0
2.580000 0.0 0.0
2.585000 0.0 0.0
2.590000 0.0 0.0
2.595000 0.0 0.0
2.600000 0.0 0.0
2.605000 0.0 0.0
2.610000 0.0 0.0
2.615000 0.0 0.0
2.620000 0.0 0.0
2.625000 0.0 0.0
2.630000 0.0 0.0
2.635000 0.0 0.0
2.640000 0.0 0.0
2.645000 0.0 0.0
2.650000 0.0 0.0
2.655000 0.0 0.0
2.660000 0.0 0.0
2.665000 0.0 0.0
2.670000 0.0 0.0
2.675000 0.0 0.0
2.680000 0.0 0.0
2.685000 0.0 0.0
2.690000 0.0 0.0
2.695000 0.0 0.0
2.700000 0.0 0.0
2.705000 0.0 0.0
2.710000 0.0 0.0
2.715000 0.0 0.0
2.720000 0.0 0.0
2.725000 0.0 0.0
2.730000 0.0 0.0
2.735000 0.0 0.0
2.740000 0.0 0.0
2.745000 0.0 0.0
2.750000 0.0 0.0
2.755000 0.0 0.0
2.760000 0.0 0.0
2.765000 0.0 0.0
2.770000 0.0 0.0
2.775000 0.0 0.0
2.780000 0.0 0.0
2.785000 0.0 0.0
2.790000 0.0 0.0
2.795000 0.0 0.0
2.800000 0.0 0.0
2.805000 0.0 0.0
2.810000 0.0 0.0
2.815000 0.0 0.0
2.820000 0.0 0.0
2.825000 0.0 0.0
2.830000 0.0 0.0
2.835000 0.0 0.0
2.840000 0.0 0.0
2.845000 0.0 0.0
2.850000 0.0 0.0
2.855000 0.0 0.0
2.860000 0.0 0.0
[...]
      <PointData Scalars="Temperature">
        <DataArray type="Float32" Name="Temperature" format="ascii">
308.150000
307.090641
306.031553
304.973010
303.915282
302.858640
301.803355
300.749695
299.697928
298.648321
297.601138
296.556641
295.515092
294.476750
293.441869
292.410703
291.383503
290.360515
289.341984
288.328150
287.319250
286.315515
285.317174
284.324452
283.337566
282.356733
281.382161
280.414055
279.452615
278.498034
277.550504
276.610207
275.677330
274.752511
273.870059
273.325055
273.082740
272.938028
272.831259
272.743473
272.666712
272.596972
272.531980
272.470336
272.411128
272.353733
272.297712
272.242751
272.188617
272.135137
272.082182
272.029652
271.977474
271.925589
271.873953
271.822532
271.771301
271.720238
271.669328
271.618561
271.567927
271.517419
271.467033
271.416766
271.366615
271.316578
271.266654
271.216844
271.167147
271.117563
271.068093
271.018738
270.969499
270.920376
270.871371
270.822485
270.773718
270.725074
270.676551
270.628152
270.579879
270.531732
270.483712
270.435821
270.388061
270.340432
270.292936
270.245574
270.198347
270.151257
270.104305
270.057492
270.010819
269.964288
269.917899
269.871654
269.825554
269.779600
269.733793
269.688135
269.642626
269.597268
269.552062
269.507008
269.462109
269.417364
269.372775
269.328342
269.284068
269.239953
269.195997
269.152203
269.108569
269.065099
269.021792
268.978650
268.935673
268.892862
268.850218
268.807742
268.765435
268.723298
268.681330
268.639534
268.597909
268.556458
268.515179
268.474074
268.433145
268.392390
268.351812
268.311410
268.271186
268.231140
268.191272
268.151584
268.112075
268.072746
268.033599
267.994633
267.955848
267.917247
267.878828
267.840592
267.802541
267.764673
267.726990
267.689493
267.652181
267.615055
267.578115
267.541361
267.504795
267.468416
267.432224
267.396220
267.360405
267.324778
267.289339
267.254089
267.219029
267.184158
267.149476
267.114984
267.080681
267.046569
267.012647
266.978915
266.945373
266.912022
266.878862
266.845891
266.813112
266.780523
266.748125
266.715917
266.683901
266.652074
266.620439
266.588994
266.557739
266.526675
266.495802
266.465118
266.434625
266.404322
266.374209
266.344285
266.314552
266.285007
266.255652
266.226486
266.197508
266.168720
266.140120
266.111707
266.083483
266.055447
266.027597
265.999935
265.972460
265.945171
265.918068
265.891151
265.864419
265.837872
265.811511
265.785333
265.759340
265.733530
265.707903
265.682459
265.657197
265.632118
265.607219
265.582502
265.557965
265.533608
265.509431
265.485433
265.461614
265.437972
265.414508
265.391221
265.368111
265.345177
265.322418
265.299833
265.277424
265.255187
265.233124
265.211234
265.189515
265.167968
265.146591
265.125385
265.104348
265.083479
265.062779
265.042247
265.021881
265.001682
264.981648
264.961780
264.942075
264.922534
264.903156
264.883940
264.864885
264.845991
264.827258
264.808683
264.790268
264.772010
264.753909
264.735964
264.718176
264.700542
264.683063
264.665737
264.648563
264.631542
264.614671
264.597951
264.581381
264.564960
264.548686
264.532560
264.516581
264.500747
264.485058
264.469513
264.454112
264.438853
264.423735
264.408759
264.393923
264.379226
264.364668
264.350247
264.335964
264.321816
264.307804
264.293926
264.280181
264.266570
264.253090
264.239742
264.226524
264.213435
264.200475
264.187643
264.174938
264.162359
264.149906
264.137577
264.125372
264.113289
264.101329
264.089490
264.077771
264.066172
264.054692
264.043329
264.032084
264.020955
264.009941
263.999042
263.988256
263.977584
263.967023
263.956574
263.946236
263.936007
263.925886
263.915874
263.905969
263.896171
263.886478
263.876889
263.867405
263.858024
263.848745
263.839568
263.830491
263.821514
263.812637
263.803857
263.795176
263.786591
263.778101
263.769707
263.761408
263.753202
263.745088
263.737067
263.729137
263.721298
263.713548
263.705887
263.698314
263.690829
263.683430
263.676117
263.668889
263.661746
263.654686
263.647709
263.640814
263.634001
263.627268
263.620615
263.614042
263.607547
263.601129
263.594789
263.588525
263.582337
263.576223
263.570184
263.564218
263.558325
263.552504
263.546754
263.541076
263.535467
263.529928
263.524457
263.519054
263.513719
263.508450
263.503247
263.498110
263.493038
263.488029
263.483084
263.478202
263.473382
263.468623
263.463925
263.459288
263.454710
263.450191
263.445730
263.441327
263.436982
263.432693
263.428460
263.424283
263.420160
263.416091
263.412076
263.408115
263.404205
263.400348
263.396542
263.392786
263.389081
263.385426
263.381820
263.378262
263.374753
263.371291
263.367876
263.364507
263.361185
263.357908
263.354675
263.351487
263.348343
263.345243
263.342185
263.339170
263.336196
263.333264
263.330373
263.327523
263.324712
263.321941
263.319209
263.316515
263.313860
263.311242
263.308662
263.306118
263.303611
263.301139
263.298703
263.296302
263.293936
263.291603
263.289305
263.287040
263.284808
263.282608
263.280440
263.278305
263.276200
263.274126
263.272083
263.270070
263.268087
263.266134
263.264209
263.262313
263.260445
263.258605
263.256793
263.255008
263.253250
263.251518
263.249813
263.248133
263.246479
263.244850
263.243245
263.241666
263.240110
263.238578
263.237070
263.235585
263.234123
263.232684
263.231266
263.229871
263.228498
263.227146
263.225815
263.224504
263.223215
263.221945
263.220696
263.219466
263.218256
263.217065
263.215893
263.214739
263.213604
263.212487
263.211388
263.210306
263.209242
263.208195
263.207165
263.206151
263.205154
263.204173
263.203208
263.202258
263.201324
263.200405
263.199502
263.198613
263.197739
263.196879
263.196033
263.195201
263.194383
263.193579
263.192788
263.192010
263.191245
263.190493
263.189753
263.189026
263.188311
263.187608
263.186917
263.186238
263.185570
263.184914
263.184268
263.183634
263.183010
263.182397
263.181794
263.181202
263.180620
263.180048
263.179486
263.178934
263.178391
263.177857
263.177333
263.176818
263.176311
263.175814
263.175325
263.174845
263.174374
263.173910
263.173455
263.173008
263.172568
263.172137
263.171713
263.171296
263.170887
263.170485
263.170091
263.169703
263.169323
263.168949
263.168582
263.168221
263.167867
263.167520
263.167178
263.166843
263.166514
263.166191
263.165874
263.165562
263.165257
263.164956
263.164662
263.164372
263.164089
263.163810
263.163536
263.163268
263.163004
263.162745
263.162492
263.162242
263.161998
263.161758
263.161522
263.161291
263.161064
263.160842
263.160624
263.160409
263.160199
263.159993
263.159791
263.159592
263.159397
263.159206
263.159019
263.158835
263.158655
263.158478
263.158304
263.158134
263.157967
263.157804
263.157643
263.157486
263.157331
263.157180
263.157031
263.156886
263.156743
263.156603
263.156466
263.156331
263.156199
263.156070
263.155943
263.155819
263.155697
263.155577
263.155460
263.155345
263.155233
263.155122
263.155014
263.154908
263.154804
263.154703
263.154603
263.154505
263.154409
263.154315
263.154223
263.154133
263.154045
263.153958
263.153873
263.153790
263.153709
263.153629
263.153551
263.153474
263.153399
263.153326
263.153254
263.153183
263.153114
263.153046
263.152980
263.152915
263.152852
263.152789
263.152728
263.152669
263.152610
263.152553
263.152497
263.152442
263.152388
263.152335
263.152284
263.152233
263.152184
263.152136
263.152088
263.152042
263.151996
263.151952
263.151908
263.151866
263.151824
263.151783
263.151743
263.151704
263.151666
263.151629
263.151592
263.151556
263.151521
263.151487
263.151453
263.151420
263.151388
263.151356
263.151325
263.151295
263.151266
263.151237
263.151209
263.151181
263.151154
263.151127
263.151102
263.151076
263.151051
263.151027
263.151003
263.150980
263.150958
263.150935
263.150914
263.150892
263.150872
263.150851
263.150831
263.150812
263.150793
263.150774
263.150756
263.150739
263.150721
263.150704
263.150687
263.150671
263.150655
263.150640
263.150625
263.150610
263.150595
263.150581
263.150567
263.150554
263.150540
263.150527
263.150515
263.150502
263.150490
263.150478
263.150466
263.150455
263.150444
263.150433
263.150423
263.150412
263.150402
263.150392
263.150382
263.150373
263.150364
263.150355
263.150346
263.150337
263.150329
263.150320
263.150312
263.150304
263.150297
263.150289
263.150282
263.150274
263.150267
263.150260
263.150253
263.150247
263.150240
263.150234
263.150228
263.150222
263.150216
263.150210
263.150204
263.150199
263.150193
263.150188
263.150182
263.150177
263.150172
263.150167
263.150162
263.150158
263.150153
263.150149
263.150144
263.150140
263.150135
263.150131
263.150127
263.150123
263.150119
263.150115
263.150111
263.150108
263.150104
263.150100
263.150097
263.150093
263.150090
263.150086
263.150083
263.150080
263.150076
263.150073
263.150070
263.150067
263.150064
263.150061
263.150058
263.150055
263.150052
263.150049
263.150046
263.150043
263.150040
263.150037
263.150035
263.150032
263.150029
263.150027
263.150024
263.150021
263.150018
263.150016
263.150013
263.150011
263.150008
263.150005
263.150003
263.150000
        </DataArray>
      </PointData>
      <CellData>
      </CellData>
    </Piece>
  </UnstructuredGrid>
</VTKFile>
