<?xml version="1.0"?>
<VTKFile type="UnstructuredGrid" version="0.1" byte_order="LittleEndian">
  <UnstructuredGrid>
    <Piece NumberOfPoints="801" NumberOfCells="800">
      <Points>
        <DataArray type="Float32" NumberOfComponents="3" format="ascii">
0.000000 0.0 0.0
0.005000 0.0 0.0
0.010000 0.0 0.0
0.015000 0.0 0.0
0.020000 0.0 0.0
0.025000 0.0 0.0
0.030000 0.0 0.0
0.035000 0.0 0.0
0.040000 0.0 0.0
0.045000 0.0 0.0
0.050000 0.0 0.0
0.055000 0.0 0.0
0.060000 0.0 0.0
0.065000 0.0 0.0
0.070000 0.0 0.0
0.075000 0.0 0.0
0.080000 0.0 0.0
0.085000 0.0 0.0
0.090000 0.0 0.0
0.095000 0.0 0.0
0.100000 0.0 0.0
0.105000 0.0 0.0
0.110000 0.0 0.0
0.115000 0.0 0.0
0.120000 0.0 0.0
0.125000 0.0 0.0
0.130000 0.0 0.0
0.135000 0.0 0.0
0.140000 0.0 0.0
0.145000 0.0 0.0
0.150000 0.0 0.0
0.155000 0.0 0.0
0.160000 0.0 0.0
0.165000 0.0 0.0
0.170000 0.0 0.0
0.175000 0.0 0.0
0.180000 0.0 0.0
0.185000 0.0 0.0
0.190000 0.0 0.0
0.195000 0.0 0.0
0.200000 0.0 0.0
0.205000 0.0 0.0
0.210000 0.0 0.0
0.215000 0.0 0.0
0.220000 0.0 0.0
0.225000 0.0 0.0
0.230000 0.0 0.0
0.235000 0.0 0.0
0.240000 0.0 0.0
0.245000 0.0 0.0
0.250000 0.0 0.0
0.255000 0.0 0.0
0.260000 0.0 0.0
0.265000 0.0 0.0
0.270000 0.0 0.0
0.275000 0.0 0.0
0.280000 0.0 0.0
0.285000 0.0 0.0
0.290000 0.0 0.0
0.295000 0.0 0.0
0.300000 0.0 0.0
0.305000 0.0 0.0
0.310000 0.0 0.0
0.315000 0.0 0.0
0.320000 0.0 0.0
0.325000 0.0 0.0
0.330000 0.0 0.0
0.335000 0.0 0.0
0.340000 0.0 0.0
0.345000 0.0 0.0
0.350000 0.0 0.0
0.355000 0.0 0.0
0.360000 0.0 0.0
0.365000 0.0 0.0
0.370000 0.0 0.0
0.375000 0.0 0.0
0.380000 0.0 0.0
0.385000 0.0 0.0
0.390000 0.0 0.0
0.395000 0.0 0.0
0.400000 0.0 0.0
0.405000 0.0 0.0
0.410000 0.0 0.0
0.415000 0.0 0.0
0.420000 0.0 0.0
0.425000 0.0 0.0
0.430000 0.0 0.0
0.435000 0.0 0.0
0.440000 0.0 0.0
0.445000 0.0 0.0
0.450000 0.0 0.0
0.455000 0.0 0.0
0.460000 0.0 0.0
0.465000 0.0 0.0
0.470000 0.0 0.0
0.475000 0.0 0.0
0.480000 0.0 0.0
0.485000 0.0 0.0
0.490000 0.0 0.0
0.495000 0.0 0.0
0.500000 0.0 0.0
0.505000 0.0 0.0
0.510000 0.0 0.0
0.515000 0.0 0.0
0.520000 0.0 0.0
0.525000 0.0 0.0
0.530000 0.0 0.0
0.535000 0.0 0.0
0.540000 0.0 0.0
0.545000 0.0 0.0
0.550000 0.0 0.0
0.555000 0.0 0.0
0.560000 0.0 0.0
0.565000 0.0 0.0
0.570000 0.0 0.0
0.575000 0.0 0.0
0.580000 0.0 0.0
0.585000 0.0 0.0
0.590000 0.0 0.0
0.595000 0.0 0.0
0.600000 0.0 0.0
0.605000 0.0 0.0
0.610000 0.0 0.0
0.615000 0.0 0.0
0.620000 0.0 0.0
0.625000 0.0 0.0
0.630000 0.0 0.0
0.635000 0.0 0.0
0.640000 0.0 0.0
0.645000 0.0 0.0
0.650000 0.0 0.0
0.655000 0.0 0.0
0.660000 0.0 0.0
0.665000 0.0 0.0
0.670000 0.0 0.0
0.675000 0.0 0.0
0.680000 0.0 0.0
0.685000 0.0 0.0
0.690000 0.0 0.0
0.695000 0.0 0.0
0.700000 0.0 0.0
0.705000 0.0 0.0
0.710000 0.0 0.0
0.715000 0.0 0.0
0.720000 0.0 0.0
0.725000 0.0 0.0
0.730000 0.0 0.0
0.735000 0.0 0.0
0.740000 0.0 0.0
0.745000 0.0 0.0
0.750000 0.0 0.0
0.755000 0.0 0.0
0.760000 0.0 0.0
0.765000 0.0 0.0
0.770000 0.0 0.0
0.775000 0.0 0.0
0.780000 0.0 0.0
0.785000 0.0 0.0
0.790000 0.0 0.0
0.795000 0.0 0.0
0.800000 0.0 0.0
0.805000 0.0 0.0
0.810000 0.0 0.0
0.815000 0.0 0.0
0.820000 0.0 0.0
0.825000 0.0 0.0
0.830000 0.0 0.0
0.835000 0.0 0.0
0.840000 0.0 0.0
0.845000 0.0 0.0
0.850000 0.0 0.0
0.855000 0.0 0.0
0.860000 0.0 0.0
0.865000 0.0 0.0
0.870000 0.0 0.0
0.875000 0.0 0.0
0.880000 0.0 0.0
0.885000 0.0 0.0
0.890000 0.0 0.0
0.895000 0.0 0.0
0.900000 0.0 0.0
0.905000 0.0 0.0
0.910000 0.0 0.0
0.915000 0.0 0.0
0.920000 0.0 0.0
0.925000 0.0 0.0
0.930000 0.0 0.0
0.935000 0.0 0.0
0.940000 0.0 0.0
0.945000 0.0 0.0
0.950000 0.0 0.0
0.955000 0.0 0.0
0.960000 0.0 0.0
0.965000 0.0 0.0
0.970000 0.0 0.0
0.975000 0.0 0.0
0.980000 0.0 0.0
0.985000 0.0 0.0
0.990000 0.0 0.0
0.995000 0.0 0.0
1.000000 0.0 0.0
1.005000 0.0 0.0
1.010000 0.0 0.0
1.015000 0.0 0.0
1.020000 0.0 0.0
1.025000 0.0 0.0
1.030000 0.0 0.0
1.035000 0.0 0.0
1.040000 0.0 0.0
1.045000 0.0 0.0
1.050000 0.0 0.0
1.055000 0.0 0.0
1.060000 0.0 0.0
1.065000 0.0 0.0
1.070000 0.0 0.0
1.075000 0.0 0.0
1.080000 0.0 0.0
1.085000 0.0 0.0
1.090000 0.0 0.0
1.095000 0.0 0.0
1.100000 0.0 0.0
1.105000 0.0 0.0
1.110000 0.0 0.0
1.115000 0.0 0.0
1.120000 0.0 0.0
1.125000 0.0 0.0
1.130000 0.0 0.0
1.135000 0.0 0.0
1.140000 0.0 0.0
1.145000 0.0 0.0
1.150000 0.0 0.0
1.155000 0.0 0.0
1.160000 0.0 0.0
1.165000 0.0 0.0
1.170000 0.0 0.0
1.175000 0.0 0.0
1.180000 0.0 0.0
1.185000 0.0 0.0
1.190000 0.0 0.0
1.195000 0.0 0.0
1.200000 0.0 0.0
1.205000 0.0 0.0
1.210000 0.0 0.0
1.215000 0.0 0.0
1.220000 0.0 0.0
1.225000 0.0 0.0
1.230000 0.0 0.0
1.235000 0.0 0.0
1.240000 0.0 0.0
1.245000 0.0 0.0
1.250000 0.0 0.0
1.255000 0.0 0.0
1.260000 0.0 0.0
1.265000 0.0 0.0
1.270000 0.0 0.0
1.275000 0.0 0.0
1.280000 0.0 0.0
1.285000 0.0 0.0
1.290000 0.0 0.0
1.295000 0.0 0.0
1.300000 0.0 0.0
1.305000 0.0 0.0
1.310000 0.0 0.0
1.315000 0.0 0.0
1.320000 0.0 0.0
1.325000 0.0 0.0
1.330000 0.0 0.0
1.335000 0.0 0.0
1.340000 0.0 0.0
1.345000 0.0 0.0
1.350000 0.0 0.0
1.355000 0.0 0.0
1.360000 0.0 0.0
1.365000 0.0 0.0
1.370000 0.0 0.0
1.375000 0.0 0.0
1.380000 0.0 0.0
1.385000 0.0 0.0
1.390000 0.0 0.0
1.395000 0.0 0.0
1.400000 0.0 0.0
1.405000 0.0 0.0
1.410000 0.0 0.0
1.415000 0.0 0.0
1.420000 0.0 0.0
1.425000 0.0 0.0
1.430000 0.0 0.0
1.435000 0.0 0.0
1.440000 0.0 0.0
1.445000 0.0 0.0
1.450000 0.0 0.0
1.455000 0.0 0.0
1.460000 0.0 0.0
1.465000 0.0 0.0
1.470000 0.0 0.0
1.475000 0.0 0.0
1.480000 0.0 0.0
1.485000 0.0 0.0
1.490000 0.0 0.0
1.495000 0.0 0.0
1.500000 0.0 0.0
1.505000 0.0 0.0
1.510000 0.0 0.0
1.515000 0.0 0.0
1.520000 0.0 0.0
1.525000 0.0 0.0
1.530000 0.0 0.0
1.535000 0.0 0.0
1.540000 0.0 0.0
1.545000 0.0 0.0
1.550000 0.0 0.0
1.555000 0.0 0.0
1.560000 0.0 0.0
1.565000 0.0 0.0
1.570000 0.0 0.0
1.575000 0.0 0.0
1.580000 0.0 0.0
1.585000 0.0 0.0
1.590000 0.0 0.0
1.595000 0.0 0.0
1.600000 0.0 0.0
1.605000 0.0 0.0
1.610000 0.0 0.0
1.615000 0.0 0.0
1.620000 0.0 0.0
1.625000 0.0 0.0
1.630000 0.0 0.0
1.635000 0.0 0.0
1.640000 0.0 0.0
1.645000 0.0 0.0
1.650000 0.0 0.0
1.655000 0.0 0.0
1.660000 0.0 0.0
1.665000 0.0 0.0
1.670000 0.0 0.0
1.675000 0.0 0.0
1.680000 0.0 0.0
1.685000 0.0 0.0
1.690000 0.0 0.0
1.695000 0.0 0.0
1.700000 0.0 0.0
1.705000 0.0 0.0
1.710000 0.0 0.0
1.715000 0.0 0.0
1.720000 0.0 0.0
1.725000 0.0 0.0
1.730000 0.0 0.0
1.735000 0.0 0.0
1.740000 0.0 0.0
1.745000 0.0 0.0
1.750000 0.0 0.0
1.755000 0.0 0.0
1.760000 0.0 0.0
1.765000 0.0 0.0
1.770000 0.0 0.0
1.775000 0.0 0.0
1.780000 0.0 0.0
1.785000 0.0 0.0
1.790000 0.0 0.0
1.795000 0.0 0.0
1.800000 0.0 0.0
1.805000 0.0 0.0
1.810000 0.0 0.0
1.815000 0.0 0.0
1.820000 0.0 0.0
1.825000 0.0 0.0
1.830000 0.0 0.0
1.835000 0.0 0.0
1.840000 0.0 0.0
1.845000 0.0 0.0
1.850000 0.0 0.0
1.855000 0.0 0.0
1.860000 0.0 0.0
1.865000 0.0 0.0
1.870000 0.0 0.0
1.875000 0.0 0.0
1.880000 0.0 0.0
1.885000 0.0 0.0
1.890000 0.0 0.0
1.895000 0.0 0.0
1.900000 0.0 0.0
1.905000 0.0 0.0
1.910000 0.0 0.0
1.915000 0.0 0.0
1.920000 0.0 0.0
1.925000 0.0 0.0
1.930000 0.0 0.0
1.935000 0.0 0.0
1.940000 0.0 0.0
1.945000 0.0 0.0
1.950000 0.0 0.0
1.955000 0.0 0.0
1.960000 0.0 0.0
1.965000 0.0 0.0
1.970000 0.0 0.0
1.975000 0.0 0.0
1.980000 0.0 0.0
1.985000 0.0 0.0
1.990000 0.0 0.0
1.995000 0.0 0.0
2.000000 0.0 0.0
2.005000 0.0 0.0
2.010000 0.0 0.0
2.015000 0.0 0.0
2.020000 0.0 0.0
2.025000 0.0 0.0
2.030000 0.0 0.0
2.035000 0.0 0.0
2.040000 0.0 0.0
2.045000 0.0 0.0
2.050000 0.0 0.0
2.055000 0.0 0.0
2.060000 0.0 0.0
2.065000 0.0 0.0
2.070000 0.0 0.0
2.075000 0.0 0.0
2.080000 0.0 0.0
2.085000 0.0 0.0
2.090000 0.0 0.0
2.095000 0.0 0.0
2.100000 0.0 0.0
2.105000 0.0 0.0
2.110000 0.0 0.0
2.115000 0.0 0.0
2.120000 0.0 0.0
2.125000 0.0 0.0
2.130000 0.0 0.0
2.135000 0.0 0.0
2.140000 0.0 0.0
2.145000 0.0 0.0
2.150000 0.0 0.0
2.155000 0.0 0.0
2.160000 0.0 0.0
2.165000 0.0 0.0
2.170000 0.0 0.0
2.175000 0.0 0.0
2.180000 0.0 0.0
2.185000 0.0 0.0
2.190000 0.0 0.0
2.195000 0.0 0.0
2.200000 0.0 0.0
2.205000 0.0 0.0
2.210000 0.0 0.0
2.215000 0.0 0.0
2.220000 0.0 0.0
2.225000 0.0 0.0
2.230000 0.0 0.0
2.235000 0.0 0.0
2.240000 0.0 0.0
2.245000 0.0 0.0
2.250000 0.0 0.0
2.255000 0.0 0.0
2.260000 0.0 0.0
2.265000 0.0 0.0
2.270000 0.0 0.0
2.275000 0.0 0.0
2.280000 0.0 0.0
2.285000 0.0 0.0
2.290000 0.0 0.0
2.295000 0.0 0.0
2.300000 0.0 0.0
2.305000 0.0 0.0
2.310000 0.0 0.0
2.315000 0.0 0.0
2.320000 0.0 0.0
2.325000 0.0 0.0
2.330000 0.0 0.0
2.335000 0.0 0.0
2.340000 0.0 0.0
2.345000 0.0 0.0
2.350000 0.0 0.0
2.355000 0.0 0.0
2.360000 0.0 0.0
2.365000 0.0 0.0
2.370000 0.0 0.0
2.375000 0.0 0.0
2.380000 0.0 0.0
2.385000 0.0 0.0
2.390000 0.0 0.0
2.395000 0.0 0.0
2.400000 0.0 0.0
2.405000 0.0 0.0
2.410000 0.0 0.0
2.415000 0.0 0.0
2.420000 0.0 0.0
2.425000 0.0 0.0
2.430000 0.0 0.0
2.435000 0.0 0.0
2.440000 0.0 0.0
2.445000 0.0 0.0
2.450000 0.0 0.0
2.455000 0.0 0.0
2.460000 0.0 0.0
2.465000 0.0 0.0
2.470000 0.0 0.0
2.475000 0.0 0.0
2.480000 0.0 0.0
2.485000 0.0 0.0
2.490000 0.0 0.0
2.495000 0.0 0.0
2.500000 0.0 0.0
2.505000 0.0 0.0
2.510000 0.0 0.0
2.515000 0.0 0.0
2.520000 0.0 0.0
2.525000 0.0 0.0
2.530000 0.0 0.0
2.535000 0.0 0.0
2.540000 0.0 0.0
2.545000 0.0 0.0
2.550000 0.0 0.0
2.555000 0.0 0.0
2.560000 0.0 0.0
2.565000 0.0 0.0
2.570000 0.0 0.0
2.575000 0.0 0.0
2.580000 0.0 0.0
2.585000 0.0 0.0
2.590000 0.0 0.0
2.595000 0.0 0.0
2.600000 0.0 0.0
2.605000 0.0 0.0
2.610000 0.0 0.0
2.615000 0.0 0.0
2.620000 0.0 0.0
2.625000 0.0 0.0
2.630000 0.0 0.0
2.635000 0.0 0.0
2.640000 0.0 0.0
2.645000 0.0 0.0
2.650000 0.0 0.0
2.655000 0.0 0.0
2.660000 0.0 0.0
2.665000 0.0 0.0
2.670000 0.0 0.0
2.675000 0.0 0.0
2.680000 0.0 0.0
2.685000 0.0 0.0
2.690000 0.0 0.0
2.695000 0.0 0.0
2.700000 0.0 0.0
2.705000 0.0 0.0
2.710000 0.0 0.0
2.715000 0.0 0.0
2.720000 0.0 0.0
2.725000 0.0 0.0
2.730000 0.0 0.0
2.735000 0.0 0.0
2.740000 0.0 0.0
2.745000 0.0 0.0
2.750000 0.0 0.0
2.755000 0.0 0.0
2.760000 0.0 0.0
2.765000 0.0 0.0
2.770000 0.0 0.0
2.775000 0.0 0.0
2.780000 0.0 0.0
2.785000 0.0 0.0
2.790000 0.0 0.0
2.795000 0.0 0.0
2.800000 0.0 0.0
2.805000 0.0 0.0
2.810000 0.0 0.0
2.815000 0.0 0.0
2.820000 0.0 0.0
2.825000 0.0 0.0
2.830000 0.0 0.0
2.835000 0.0 0.0
2.840000 0.0 0.0
2.845000 0.0 0.0
2.850000 0.0 0.0
2.855000 0.0 0.0
2.860000 0.0 0.0
[...]
      <PointData Scalars="Temperature">
        <DataArray type="Float32" Name="Temperature" format="ascii">
308.150000
306.287444
304.426189
302.567533
300.712766
298.863173
297.020025
295.184581
293.358081
291.541744
289.736768
287.944321
286.165544
284.401543
282.653390
280.922117
279.208716
277.514139
275.839306
274.203140
273.279129
272.961375
272.769387
272.616990
272.481826
272.355395
272.233784
272.115003
271.997980
271.882129
271.767125
271.652790
271.539030
271.425801
271.313084
271.200876
271.089187
270.978026
270.867410
270.757354
270.647877
270.538995
270.430727
270.323089
270.216099
270.109774
270.004130
269.899183
269.794950
269.691445
269.588684
269.486681
269.385451
269.285007
269.185363
269.086531
268.988524
268.891354
268.795033
268.699571
268.604980
268.511269
268.418449
268.326528
268.235515
268.145420
268.056249
267.968010
267.880710
267.794356
267.708953
267.624508
267.541026
267.458510
267.376966
267.296397
267.216807
267.138198
267.060573
266.983934
266.908283
266.833621
266.759949
266.687266
266.615574
266.544872
266.475158
266.406433
266.338693
266.271938
266.206165
266.141372
266.077554
266.014710
265.952836
265.891927
265.831979
265.772988
265.714949
265.657856
265.601705
265.546489
265.492203
265.438840
265.386394
265.334858
265.284225
265.234488
265.185639
265.137672
265.090579
265.044350
264.998979
264.954457
264.910775
264.867926
264.825900
264.784688
264.744282
264.704671
264.665849
264.627804
264.590527
264.554009
264.518241
264.483213
264.448915
264.415337
264.382470
264.350303
264.318828
264.288033
264.257910
264.228448
264.199637
264.171468
264.143930
264.117014
264.090709
264.065006
264.039895
264.015366
263.991409
263.968015
263.945174
263.922876
263.901111
263.879871
263.859145
263.838924
263.819199
263.799960
263.781199
263.762906
263.745072
263.727688
263.710746
263.694236
263.678150
263.662479
263.647214
263.632348
263.617872
263.603777
263.590056
263.576701
263.563703
263.551055
263.538750
263.526779
263.515135
263.503810
263.492798
263.482092
263.471683
263.461566
263.451734
263.442179
263.432896
263.423877
263.415116
263.406608
263.398345
263.390322
263.382533
263.374972
263.367634
263.360512
263.353601
263.346896
263.340392
263.334083
263.327964
263.322030
263.316277
263.310699
263.305292
263.300052
263.294973
263.290052
263.285283
263.280664
263.276190
263.271856
263.267659
263.263595
263.259661
263.255852
263.252165
263.248597
263.245143
263.241802
263.238569
263.235442
263.232417
263.229491
263.226662
263.223926
263.221281
263.218724
263.216253
263.213864
263.211555
263.209324
263.207169
263.205086
263.203075
263.201132
263.199256
263.197444
263.195695
263.194006
263.192375
263.190801
263.189282
263.187817
263.186402
263.185037
263.183721
263.182451
263.181226
263.180044
263.178905
263.177806
263.176747
263.175726
263.174742
263.173793
263.172879
263.171998
263.171149
263.170331
263.169543
263.168784
263.168053
263.167349
263.166670
263.166018
263.165389
263.164784
263.164201
263.163640
263.163101
263.162581
263.162081
263.161601
263.161138
263.160693
263.160265
263.159853
263.159457
263.159076
263.158710
263.158358
263.158020
263.157694
263.157381
263.157081
263.156792
263.156514
263.156248
263.155991
263.155745
263.155509
263.155281
263.155063
263.154854
263.154652
263.154459
263.154274
263.154096
263.153925
263.153761
263.153603
263.153452
263.153307
263.153168
263.153034
263.152906
263.152783
263.152665
263.152552
263.152443
263.152339
263.152240
263.152144
263.152052
263.151964
263.151880
263.151799
263.151722
263.151647
263.151576
263.151508
263.151443
263.151380
263.151320
263.151263
263.151208
263.151155
263.151105
263.151056
263.151010
263.150966
263.150923
263.150882
263.150844
263.150806
263.150771
263.150737
263.150704
263.150673
263.150643
263.150614
263.150587
263.150561
263.150536
263.150512
263.150489
263.150467
263.150446
263.150426
263.150406
263.150388
263.150371
263.150354
263.150338
263.150322
263.150308
263.150294
263.150280
263.150268
263.150255
263.150244
263.150233
263.150222
263.150212
263.150202
263.150193
263.150184
263.150175
263.150167
263.150160
263.150152
263.150145
263.150138
263.150132
263.150126
263.150120
263.150114
263.150109
263.150104
263.150099
263.150094
263.150090
263.150086
263.150082
263.150078
263.150074
263.150071
263.150067
263.150064
263.150061
263.150058
263.150056
263.150053
263.150050
263.150048
263.150046
263.150044
263.150041
263.150040
263.150038
263.150036
263.150034
263.150032
263.150031
263.150029
263.150028
263.150027
263.150025
263.150024
263.150023
263.150022
263.150021
263.150020
263.150019
263.150018
263.150017
263.150016
263.150015
263.150015
263.150014
263.150013
263.150013
263.150012
263.150011
263.150011
263.150010
263.150010
263.150009
263.150009
263.150008
263.150008
263.150008
263.150007
263.150007
263.150007
263.150006
263.150006
263.150006
263.150005
263.150005
263.150005
263.150005
263.150004
263.150004
263.150004
263.150004
263.150004
263.150003
263.150003
263.150003
263.150003
263.150003
263.150003
263.150002
263.150002
263.150002
263.150002
263.150002
263.150002
263.150002
263.150002
263.150002
263.150002
263.150001
263.150001
263.150001
263.150001
263.150001
263.150001
263.150001
263.150001
263.150001
263.150001
263.150001
263.150001
263.150001
263.150001
263.150001
263.150001
263.150001
263.150001
263.150001
263.150001
263.150001
263.150000
263.150000
263.150000
263.150000
263.150000
263.150000
263.150000
263.150000
263.150000
263.150000
263.150000
263.150000
263.150000
263.150000
263.150000
263.150000
263.150000
263.150000
263.150000
263.150000
263.150000
263.150000
263.150000
263.150000
263.150000
263.150000
263.150000
263.150000
263.150000
263.150000
263.150000
263.150000
263.150000
263.150000
263.150000
263.150000
263.150000
263.150000
263.150000
263.150000
263.150000
263.150000
263.150000
263.150000
263.150000
263.150000
263.150000
263.150000
263.150000
263.150000
263.150000
263.150000
263.150000
263.150000
263.150000
263.150000
263.150000
263.150000
263.150000
263.150000
263.150000
263.150000
263.150000
263.150000
263.150000
263.150000
263.150000
263.150000
263.150000
263.150000
263.150000
263.150000
263.150000
263.150000
263.150000
263.150000
263.150000
263.150000
263.150000
263.150000
263.150000
263.150000
263.150000
263.150000
263.150000
263.150000
263.150000
263.150000
263.150000
263.150000
263.150000
263.150000
263.150000
263.150000
263.150000
263.150000
263.150000
263.150000
263.150000
263.150000
263.150000
263.150000
263.150000
263.150000
263.150000
263.150000
263.150000
263.150000
263.150000
263.150000
263.150000
263.150000
263.150000
263.150000
263.150000
263.150000
263.150000
263.150000
263.150000
263.150000
263.150000
263.150000
263.150000
263.150000
263.150000
263.150000
263.150000
263.150000
263.150000
263.150000
263.150000
263.150000
263.150000
263.150000
263.150000
263.150000
263.150000
263.150000
263.150000
263.150000
263.150000
263.150000
263.150000
263.150000
263.150000
263.150000
263.150000
263.150000
263.150000
263.150000
263.150000
263.150000
263.150000
263.150000
263.150000
263.150000
263.150000
263.150000
263.150000
263.150000
263.150000
263.150000
263.150000
263.150000
263.150000
263.150000
263.150000
263.150000
263.150000
263.150000
263.150000
263.150000
263.150000
263.150000
263.150000
263.150000
263.150000
263.150000
263.150000
263.150000
263.150000
263.150000
263.150000
263.150000
263.150000
263.150000
263.150000
263.150000
263.150000
263.150000
263.150000
263.150000
263.150000
263.150000
263.150000
263.150000
263.150000
263.150000
263.150000
263.150000
263.150000
263.150000
263.150000
263.150000
263.150000
263.150000
263.150000
263.150000
263.150000
263.150000
263.150000
263.150000
263.150000
263.150000
263.150000
263.150000
263.150000
263.150000
263.150000
263.150000
263.150000
263.150000
263.150000
263.150000
263.150000
263.150000
263.150000
263.150000
263.150000
263.150000
263.150000
263.150000
263.150000
263.150000
263.150000
263.150000
263.150000
263.150000
263.150000
263.150000
263.150000
263.150000
263.150000
263.150000
263.150000
263.150000
263.150000
263.150000
263.150000
263.150000
263.150000
263.150000
263.150000
263.150000
263.150000
263.150000
263.150000
263.150000
263.150000
263.150000
263.150000
263.150000
263.150000
263.150000
263.150000
263.150000
263.150000
263.150000
263.150000
263.150000
263.150000
263.150000
263.150000
263.150000
263.150000
263.150000
263.150000
263.150000
263.150000
263.150000
263.150000
263.150000
263.150000
263.150000
263.150000
263.150000
263.150000
263.150000
263.150000
263.150000
263.150000
263.150000
263.150000
263.150000
263.150000
263.150000
263.150000
263.150000
263.150000
263.150000
263.150000
263.150000
263.150000
263.150000
263.150000
263.150000
263.150000
263.150000
263.150000
263.150000
263.150000
263.150000
263.150000
263.150000
263.150000
263.150000
263.150000
263.150000
263.150000
263.150000
263.150000
263.150000
263.150000
263.150000
        </DataArray>
      </PointData>
      <CellData>
      </CellData>
    </Piece>
  </UnstructuredGrid>
</VTKFile>
