<?xml version="1.0"?>
<VTKFile type="UnstructuredGrid" version="0.1" byte_order="LittleEndian">
  <UnstructuredGrid>
    <Piece NumberOfPoints="801" NumberOfCells="800">
      <Points>
        <DataArray type="Float32" NumberOfComponents="3" format="ascii">
0.000000 0.0 0.0
0.005000 0.0 0.0
0.010000 0.0 0.0
0.015000 0.0 0.0
0.020000 0.0 0.0
0.025000 0.0 0.0
0.030000 0.0 0.0
0.035000 0.0 0.0
0.040000 0.0 0.0
0.045000 0.0 0.0
0.050000 0.0 0.0
0.055000 0.0 0.0
0.060000 0.0 0.0
0.065000 0.0 0.0
0.070000 0.0 0.0
0.075000 0.0 0.0
0.080000 0.0 0.0
0.085000 0.0 0.0
0.090000 0.0 0.0
0.095000 0.0 0.0
0.100000 0.0 0.0
0.105000 0.0 0.0
0.110000 0.0 0.0
0.115000 0.0 0.0
0.120000 0.0 0.0
0.125000 0.0 0.0
0.130000 0.0 0.0
0.135000 0.0 0.0
0.140000 0.0 0.0
0.145000 0.0 0.0
0.150000 0.0 0.0
0.155000 0.0 0.0
0.160000 0.0 0.0
0.165000 0.0 0.0
0.170000 0.0 0.0
0.175000 0.0 0.0
0.180000 0.0 0.0
0.185000 0.0 0.0
0.190000 0.0 0.0
0.195000 0.0 0.0
0.200000 0.0 0.0
0.205000 0.0 0.0
0.210000 0.0 0.0
0.215000 0.0 0.0
0.220000 0.0 0.0
0.225000 0.0 0.0
0.230000 0.0 0.0
0.235000 0.0 0.0
0.240000 0.0 0.0
0.245000 0.0 0.0
0.250000 0.0 0.0
0.255000 0.0 0.0
0.260000 0.0 0.0
0.265000 0.0 0.0
0.270000 0.0 0.0
0.275000 0.0 0.0
0.280000 0.0 0.0
0.285000 0.0 0.0
0.290000 0.0 0.0
0.295000 0.0 0.0
0.300000 0.0 0.0
0.305000 0.0 0.0
0.310000 0.0 0.0
0.315000 0.0 0.0
0.320000 0.0 0.0
0.325000 0.0 0.0
0.330000 0.0 0.0
0.335000 0.0 0.0
0.340000 0.0 0.0
0.345000 0.0 0.0
0.350000 0.0 0.0
0.355000 0.0 0.0
0.360000 0.0 0.0
0.365000 0.0 0.0
0.370000 0.0 0.0
0.375000 0.0 0.0
0.380000 0.0 0.0
0.385000 0.0 0.0
0.390000 0.0 0.0
0.395000 0.0 0.0
0.400000 0.0 0.0
0.405000 0.0 0.0
0.410000 0.0 0.0
0.415000 0.0 0.0
0.420000 0.0 0.0
0.425000 0.0 0.0
0.430000 0.0 0.0
0.435000 0.0 0.0
0.440000 0.0 0.0
0.445000 0.0 0.0
0.450000 0.0 0.0
0.455000 0.0 0.0
0.460000 0.0 0.0
0.465000 0.0 0.0
0.470000 0.0 0.0
0.475000 0.0 0.0
0.480000 0.0 0.0
0.485000 0.0 0.0
0.490000 0.0 0.0
0.495000 0.0 0.0
0.500000 0.0 0.0
0.505000 0.0 0.0
0.510000 0.0 0.0
0.515000 0.0 0.0
0.520000 0.0 0.0
0.525000 0.0 0.0
0.530000 0.0 0.0
0.535000 0.0 0.0
0.540000 0.0 0.0
0.545000 0.0 0.0
0.550000 0.0 0.0
0.555000 0.0 0.0
0.560000 0.0 0.0
0.565000 0.0 0.0
0.570000 0.0 0.0
0.575000 0.0 0.0
0.580000 0.0 0.0
0.585000 0.0 0.0
0.590000 0.0 0.0
0.595000 0.0 0.0
0.600000 0.0 0.0
0.605000 0.0 0.0
0.610000 0.0 0.0
0.615000 0.0 0.0
0.620000 0.0 0.0
0.625000 0.0 0.0
0.630000 0.0 0.0
0.635000 0.0 0.0
0.640000 0.0 0.0
0.645000 0.0 0.0
0.650000 0.0 0.0
0.655000 0.0 0.0
0.660000 0.0 0.0
0.665000 0.0 0.0
0.670000 0.0 0.0
0.675000 0.0 0.0
0.680000 0.0 0.0
0.685000 0.0 0.0
0.690000 0.0 0.0
0.695000 0.0 0.0
0.700000 0.0 0.0
0.705000 0.0 0.0
0.710000 0.0 0.0
0.715000 0.0 0.0
0.720000 0.0 0.0
0.725000 0.0 0.0
0.730000 0.0 0.0
0.735000 0.0 0.0
0.740000 0.0 0.0
0.745000 0.0 0.0
0.750000 0.0 0.0
0.755000 0.0 0.0
0.760000 0.0 0.0
0.765000 0.0 0.0
0.770000 0.0 0.0
0.775000 0.0 0.0
0.780000 0.0 0.0
0.785000 0.0 0.0
0.790000 0.0 0.0
0.795000 0.0 0.0
0.800000 0.0 0.0
0.805000 0.0 0.0
0.810000 0.0 0.0
0.815000 0.0 0.0
0.820000 0.0 0.0
0.825000 0.0 0.0
0.830000 0.0 0.0
0.835000 0.0 0.0
0.840000 0.0 0.0
0.845000 0.0 0.0
0.850000 0.0 0.0
0.855000 0.0 0.0
0.860000 0.0 0.0
0.865000 0.0 0.0
0.870000 0.0 0.0
0.875000 0.0 0.0
0.880000 0.0 0.0
0.885000 0.0 0.0
0.890000 0.0 0.0
0.895000 0.0 0.0
0.900000 0.0 0.0
0.905000 0.0 0.0
0.910000 0.0 0.0
0.915000 0.0 0.0
0.920000 0.0 0.0
0.925000 0.0 0.0
0.930000 0.0 0.0
0.935000 0.0 0.0
0.940000 0.0 0.0
0.945000 0.0 0.0
0.950000 0.0 0.0
0.955000 0.0 0.0
0.960000 0.0 0.0
0.965000 0.0 0.0
0.970000 0.0 0.0
0.975000 0.0 0.0
0.980000 0.0 0.0
0.985000 0.0 0.0
0.990000 0.0 0.0
0.995000 0.0 0.0
1.000000 0.0 0.0
1.005000 0.0 0.0
1.010000 0.0 0.0
1.015000 0.0 0.0
1.020000 0.0 0.0
1.025000 0.0 0.0
1.030000 0.0 0.0
1.035000 0.0 0.0
1.040000 0.0 0.0
1.045000 0.0 0.0
1.050000 0.0 0.0
1.055000 0.0 0.0
1.060000 0.0 0.0
1.065000 0.0 0.0
1.070000 0.0 0.0
1.075000 0.0 0.0
1.080000 0.0 0.0
1.085000 0.0 0.0
1.090000 0.0 0.0
1.095000 0.0 0.0
1.100000 0.0 0.0
1.105000 0.0 0.0
1.110000 0.0 0.0
1.115000 0.0 0.0
1.120000 0.0 0.0
1.125000 0.0 0.0
1.130000 0.0 0.0
1.135000 0.0 0.0
1.140000 0.0 0.0
1.145000 0.0 0.0
1.150000 0.0 0.0
1.155000 0.0 0.0
1.160000 0.0 0.0
1.165000 0.0 0.0
1.170000 0.0 0.0
1.175000 0.0 0.0
1.180000 0.0 0.0
1.185000 0.0 0.0
1.190000 0.0 0.0
1.195000 0.0 0.0
1.200000 0.0 0.0
1.205000 0.0 0.0
1.210000 0.0 0.0
1.215000 0.0 0.0
1.220000 0.0 0.0
1.225000 0.0 0.0
1.230000 0.0 0.0
1.235000 0.0 0.0
1.240000 0.0 0.0
1.245000 0.0 0.0
1.250000 0.0 0.0
1.255000 0.0 0.0
1.260000 0.0 0.0
1.265000 0.0 0.0
1.270000 0.0 0.0
1.275000 0.0 0.0
1.280000 0.0 0.0
1.285000 0.0 0.0
1.290000 0.0 0.0
1.295000 0.0 0.0
1.300000 0.0 0.0
1.305000 0.0 0.0
1.310000 0.0 0.0
1.315000 0.0 0.0
1.320000 0.0 0.0
1.325000 0.0 0.0
1.330000 0.0 0.0
1.335000 0.0 0.0
1.340000 0.0 0.0
1.345000 0.0 0.0
1.350000 0.0 0.0
1.355000 0.0 0.0
1.360000 0.0 0.0
1.365000 0.0 0.0
1.370000 0.0 0.0
1.375000 0.0 0.0
1.380000 0.0 0.0
1.385000 0.0 0.0
1.390000 0.0 0.0
1.395000 0.0 0.0
1.400000 0.0 0.0
1.405000 0.0 0.0
1.410000 0.0 0.0
1.415000 0.0 0.0
1.420000 0.0 0.0
1.425000 0.0 0.0
1.430000 0.0 0.0
1.435000 0.0 0.0
1.440000 0.0 0.0
1.445000 0.0 0.0
1.450000 0.0 0.0
1.455000 0.0 0.0
1.460000 0.0 0.0
1.465000 0.0 0.0
1.470000 0.0 0.0
1.475000 0.0 0.0
1.480000 0.0 0.0
1.485000 0.0 0.0
1.490000 0.0 0.0
1.495000 0.0 0.0
1.500000 0.0 0.0
1.505000 0.0 0.0
1.510000 0.0 0.0
1.515000 0.0 0.0
1.520000 0.0 0.0
1.525000 0.0 0.0
1.530000 0.0 0.0
1.535000 0.0 0.0
1.540000 0.0 0.0
1.545000 0.0 0.0
1.550000 0.0 0.0
1.555000 0.0 0.0
1.560000 0.0 0.0
1.565000 0.0 0.0
1.570000 0.0 0.0
1.575000 0.0 0.0
1.580000 0.0 0.0
1.585000 0.0 0.0
1.590000 0.0 0.0
1.595000 0.0 0.0
1.600000 0.0 0.0
1.605000 0.0 0.0
1.610000 0.0 0.0
1.615000 0.0 0.0
1.620000 0.0 0.0
1.625000 0.0 0.0
1.630000 0.0 0.0
1.635000 0.0 0.0
1.640000 0.0 0.0
1.645000 0.0 0.0
1.650000 0.0 0.0
1.655000 0.0 0.0
1.660000 0.0 0.0
1.665000 0.0 0.0
1.670000 0.0 0.0
1.675000 0.0 0.0
1.680000 0.0 0.0
1.685000 0.0 0.0
1.690000 0.0 0.0
1.695000 0.0 0.0
1.700000 0.0 0.0
1.705000 0.0 0.0
1.710000 0.0 0.0
1.715000 0.0 0.0
1.720000 0.0 0.0
1.725000 0.0 0.0
1.730000 0.0 0.0
1.735000 0.0 0.0
1.740000 0.0 0.0
1.745000 0.0 0.0
1.750000 0.0 0.0
1.755000 0.0 0.0
1.760000 0.0 0.0
1.765000 0.0 0.0
1.770000 0.0 0.0
1.775000 0.0 0.0
1.780000 0.0 0.0
1.785000 0.0 0.0
1.790000 0.0 0.0
1.795000 0.0 0.0
1.800000 0.0 0.0
1.805000 0.0 0.0
1.810000 0.0 0.0
1.815000 0.0 0.0
1.820000 0.0 0.0
1.825000 0.0 0.0
1.830000 0.0 0.0
1.835000 0.0 0.0
1.840000 0.0 0.0
1.845000 0.0 0.0
1.850000 0.0 0.0
1.855000 0.0 0.0
1.860000 0.0 0.0
1.865000 0.0 0.0
1.870000 0.0 0.0
1.875000 0.0 0.0
1.880000 0.0 0.0
1.885000 0.0 0.0
1.890000 0.0 0.0
1.895000 0.0 0.0
1.900000 0.0 0.0
1.905000 0.0 0.0
1.910000 0.0 0.0
1.915000 0.0 0.0
1.920000 0.0 0.0
1.925000 0.0 0.0
1.930000 0.0 0.0
1.935000 0.0 0.0
1.940000 0.0 0.0
1.945000 0.0 0.0
1.950000 0.0 0.0
1.955000 0.0 0.0
1.960000 0.0 0.0
1.965000 0.0 0.0
1.970000 0.0 0.0
1.975000 0.0 0.0
1.980000 0.0 0.0
1.985000 0.0 0.0
1.990000 0.0 0.0
1.995000 0.0 0.0
2.000000 0.0 0.0
2.005000 0.0 0.0
2.010000 0.0 0.0
2.015000 0.0 0.0
2.020000 0.0 0.0
2.025000 0.0 0.0
2.030000 0.0 0.0
2.035000 0.0 0.0
2.040000 0.0 0.0
2.045000 0.0 0.0
2.050000 0.0 0.0
2.055000 0.0 0.0
2.060000 0.0 0.0
2.065000 0.0 0.0
2.070000 0.0 0.0
2.075000 0.0 0.0
2.080000 0.0 0.0
2.085000 0.0 0.0
2.090000 0.0 0.0
2.095000 0.0 0.0
2.100000 0.0 0.0
2.105000 0.0 0.0
2.110000 0.0 0.0
2.115000 0.0 0.0
2.120000 0.0 0.0
2.125000 0.0 0.0
2.130000 0.0 0.0
2.135000 0.0 0.0
2.140000 0.0 0.0
2.145000 0.0 0.0
2.150000 0.0 0.0
2.155000 0.0 0.0
2.160000 0.0 0.0
2.165000 0.0 0.0
2.170000 0.0 0.0
2.175000 0.0 0.0
2.180000 0.0 0.0
2.185000 0.0 0.0
2.190000 0.0 0.0
2.195000 0.0 0.0
2.200000 0.0 0.0
2.205000 0.0 0.0
2.210000 0.0 0.0
2.215000 0.0 0.0
2.220000 0.0 0.0
2.225000 0.0 0.0
2.230000 0.0 0.0
2.235000 0.0 0.0
2.240000 0.0 0.0
2.245000 0.0 0.0
2.250000 0.0 0.0
2.255000 0.0 0.0
2.260000 0.0 0.0
2.265000 0.0 0.0
2.270000 0.0 0.0
2.275000 0.0 0.0
2.280000 0.0 0.0
2.285000 0.0 0.0
2.290000 0.0 0.0
2.295000 0.0 0.0
2.300000 0.0 0.0
2.305000 0.0 0.0
2.310000 0.0 0.0
2.315000 0.0 0.0
2.320000 0.0 0.0
2.325000 0.0 0.0
2.330000 0.0 0.0
2.335000 0.0 0.0
2.340000 0.0 0.0
2.345000 0.0 0.0
2.350000 0.0 0.0
2.355000 0.0 0.0
2.360000 0.0 0.0
2.365000 0.0 0.0
2.370000 0.0 0.0
2.375000 0.0 0.0
2.380000 0.0 0.0
2.385000 0.0 0.0
2.390000 0.0 0.0
2.395000 0.0 0.0
2.400000 0.0 0.0
2.405000 0.0 0.0
2.410000 0.0 0.0
2.415000 0.0 0.0
2.420000 0.0 0.0
2.425000 0.0 0.0
2.430000 0.0 0.0
2.435000 0.0 0.0
2.440000 0.0 0.0
2.445000 0.0 0.0
2.450000 0.0 0.0
2.455000 0.0 0.0
2.460000 0.0 0.0
2.465000 0.0 0.0
2.470000 0.0 0.0
2.475000 0.0 0.0
2.480000 0.0 0.0
2.485000 0.0 0.0
2.490000 0.0 0.0
2.495000 0.0 0.0
2.500000 0.0 0.0
2.505000 0.0 0.0
2.510000 0.0 0.0
2.515000 0.0 0.0
2.520000 0.0 0.0
2.525000 0.0 0.0
2.530000 0.0 0.0
2.535000 0.0 0.0
2.540000 0.0 0.0
2.545000 0.0 0.0
2.550000 0.0 0.0
2.555000 0.0 0.0
2.560000 0.0 0.0
2.565000 0.0 0.0
2.570000 0.0 0.0
2.575000 0.0 0.0
2.580000 0.0 0.0
2.585000 0.0 0.0
2.590000 0.0 0.0
2.595000 0.0 0.0
2.600000 0.0 0.0
2.605000 0.0 0.0
2.610000 0.0 0.0
2.615000 0.0 0.0
2.620000 0.0 0.0
2.625000 0.0 0.0
2.630000 0.0 0.0
2.635000 0.0 0.0
2.640000 0.0 0.0
2.645000 0.0 0.0
2.650000 0.0 0.0
2.655000 0.0 0.0
2.660000 0.0 0.0
2.665000 0.0 0.0
2.670000 0.0 0.0
2.675000 0.0 0.0
2.680000 0.0 0.0
2.685000 0.0 0.0
2.690000 0.0 0.0
2.695000 0.0 0.0
2.700000 0.0 0.0
2.705000 0.0 0.0
2.710000 0.0 0.0
2.715000 0.0 0.0
2.720000 0.0 0.0
2.725000 0.0 0.0
2.730000 0.0 0.0
2.735000 0.0 0.0
2.740000 0.0 0.0
2.745000 0.0 0.0
2.750000 0.0 0.0
2.755000 0.0 0.0
2.760000 0.0 0.0
2.765000 0.0 0.0
2.770000 0.0 0.0
2.775000 0.0 0.0
2.780000 0.0 0.0
2.785000 0.0 0.0
2.790000 0.0 0.0
2.795000 0.0 0.0
2.800000 0.0 0.0
2.805000 0.0 0.0
2.810000 0.0 0.0
2.815000 0.0 0.0
2.820000 0.0 0.0
2.825000 0.0 0.0
2.830000 0.0 0.0
2.835000 0.0 0.0
2.840000 0.0 0.0
2.845000 0.0 0.0
2.850000 0.0 0.0
2.855000 0.0 0.0
2.860000 0.0 0.0
[...]
      <PointData Scalars="Temperature">
        <DataArray type="Float32" Name="Temperature" format="ascii">
308.150000
306.924869
305.700154
304.476267
303.253624
302.032636
300.813713
299.597266
298.383700
297.173418
295.966820
294.764304
293.566262
292.373083
291.185150
290.002843
288.826536
287.656599
286.493395
285.337284
284.188618
283.047746
281.915013
280.790757
279.675313
278.569014
277.472188
276.385162
275.308300
274.249257
273.447277
273.117689
272.943933
272.821496
272.722395
272.636071
272.557537
272.484085
272.414106
272.346578
272.280824
272.216382
272.152928
272.090230
272.028123
271.966486
271.905230
271.844292
271.783623
271.723190
271.662966
271.602934
271.543082
271.483399
271.423880
271.364520
271.305318
271.246272
271.187382
271.128649
271.070072
271.011654
270.953397
270.895301
270.837368
270.779602
270.722003
270.664575
270.607318
270.550236
270.493331
270.436604
270.380058
270.323695
270.267518
270.211528
270.155727
270.100118
270.044703
269.989484
269.934462
269.879640
269.825020
269.770604
269.716393
269.662390
269.608597
269.555014
269.501645
269.448490
269.395553
269.342833
269.290334
269.238056
269.186002
269.134173
269.082571
269.031196
268.980052
268.929138
268.878458
268.828011
268.777800
268.727825
268.678089
268.628593
268.579337
268.530324
268.481554
268.433028
268.384748
268.336715
268.288930
268.241394
268.194109
268.147074
268.100291
268.053761
268.007486
267.961465
267.915700
267.870191
267.824940
267.779947
267.735213
267.690739
267.646525
267.602571
267.558880
267.515450
267.472284
267.429380
267.386740
267.344365
267.302254
267.260409
267.218828
267.177514
267.136466
267.095684
267.055170
267.014922
266.974941
266.935228
266.895783
266.856605
266.817695
266.779053
266.740678
266.702572
266.664734
266.627164
266.589861
266.552827
266.516060
266.479561
266.443329
266.407364
266.371666
266.336235
266.301071
266.266172
266.231540
266.197173
266.163072
266.129235
266.095663
266.062355
266.029310
265.996528
265.964009
265.931752
265.899757
265.868022
265.836548
265.805333
265.774378
265.743681
265.713243
265.683061
265.653136
265.623466
265.594051
265.564891
265.535984
265.507330
265.478927
265.450775
265.422874
265.395222
265.367818
265.340661
265.313752
265.287087
265.260668
265.234492
265.208558
265.182867
265.157416
265.132205
265.107232
265.082497
265.057999
265.033736
265.009707
264.985911
264.962348
264.939015
264.915912
264.893038
264.870392
264.847972
264.825777
264.803805
264.782057
264.760530
264.739224
264.718136
264.697266
264.676613
264.656175
264.635952
264.615941
264.596141
264.576552
264.557171
264.537998
264.519032
264.500270
264.481712
264.463356
264.445202
264.427247
264.409490
264.391930
264.374566
264.357396
264.340419
264.323634
264.307038
264.290632
264.274412
264.258379
264.242531
264.226866
264.211383
264.196080
264.180956
264.166011
264.151241
264.136647
264.122226
264.107977
264.093900
264.079991
264.066251
264.052677
264.039269
264.026025
264.012943
264.000022
263.987261
263.974659
263.962213
263.949923
263.937787
263.925805
263.913973
263.902292
263.890760
263.879375
263.868136
263.857042
263.846091
263.835282
263.824614
263.814086
263.803695
263.793441
263.783323
263.773338
263.763487
263.753766
263.744176
263.734715
263.725381
263.716173
263.707091
263.698132
263.689295
263.680580
263.671984
263.663507
263.655148
263.646905
263.638776
263.630761
263.622859
263.615068
263.607387
263.599815
263.592350
263.584992
263.577739
263.570590
263.563544
263.556600
263.549757
263.543013
263.536367
263.529818
263.523366
263.517008
263.510744
263.504573
263.498494
263.492505
263.486606
263.480795
263.475071
263.469434
263.463881
263.458414
263.453029
263.447726
263.442505
263.437363
263.432301
263.427317
263.422410
263.417579
263.412824
263.408142
263.403534
263.398999
263.394534
263.390141
263.385817
263.381561
263.377373
263.373252
263.369198
263.365208
263.361282
263.357420
263.353621
263.349883
263.346206
263.342589
263.339031
263.335532
263.332090
263.328705
263.325376
263.322102
263.318883
263.315717
263.312604
263.309544
263.306534
263.303576
263.300668
263.297808
263.294998
263.292235
263.289519
263.286850
263.284227
263.281649
263.279115
263.276625
263.274178
263.271774
263.269411
263.267090
263.264810
263.262569
263.260368
263.258206
263.256082
263.253995
263.251946
263.249933
263.247956
263.246014
263.244107
263.242235
263.240396
263.238591
263.236818
263.235077
263.233368
263.231690
263.230043
263.228426
263.226839
263.225280
263.223751
263.222250
263.220777
263.219331
263.217912
263.216519
263.215153
263.213812
263.212496
263.211205
263.209939
263.208696
263.207477
263.206281
263.205108
263.203957
263.202828
263.201721
263.200635
263.199570
263.198526
263.197502
263.196497
263.195512
263.194546
263.193600
263.192671
263.191761
263.190868
263.189994
263.189136
263.188295
263.187471
263.186664
263.185872
263.185096
263.184336
263.183590
263.182860
263.182145
263.181443
263.180756
263.180083
263.179423
263.178777
263.178144
263.177524
263.176916
263.176321
263.175738
263.175167
263.174608
263.174060
263.173524
263.172999
263.172484
263.171981
263.171487
263.171004
263.170531
263.170068
263.169615
263.169171
263.168737
263.168312
263.167895
263.167488
263.167089
263.166699
263.166317
263.165943
263.165577
263.165219
263.164869
263.164526
263.164190
263.163862
263.163541
263.163227
263.162919
263.162619
263.162324
263.162037
263.161755
263.161480
263.161211
263.160947
263.160690
263.160438
263.160192
263.159951
263.159715
263.159485
263.159260
263.159040
263.158824
263.158614
263.158408
263.158207
263.158010
263.157818
263.157630
263.157447
263.157267
263.157092
263.156921
263.156753
263.156589
263.156430
263.156273
263.156121
263.155971
263.155826
263.155683
263.155544
263.155408
263.155275
263.155146
263.155019
263.154895
263.154774
263.154656
263.154541
263.154428
263.154318
263.154211
263.154106
263.154004
263.153904
263.153806
263.153711
263.153618
263.153527
263.153438
263.153352
263.153267
263.153185
263.153104
263.153025
263.152949
263.152874
263.152801
263.152730
263.152660
263.152592
263.152526
263.152461
263.152398
263.152337
263.152277
263.152218
263.152161
263.152105
263.152051
263.151998
263.151946
263.151895
263.151846
263.151798
263.151751
263.151706
263.151661
263.151618
263.151575
263.151534
263.151494
263.151455
263.151416
263.151379
263.151343
263.151307
263.151273
263.151239
263.151206
263.151174
263.151143
263.151113
263.151083
263.151054
263.151026
263.150999
263.150972
263.150946
263.150920
263.150896
263.150872
263.150848
263.150825
263.150803
263.150781
263.150760
263.150739
263.150719
263.150700
263.150681
263.150662
263.150644
263.150627
263.150609
263.150593
263.150577
263.150561
263.150545
263.150530
263.150516
263.150502
263.150488
263.150474
263.150461
263.150448
263.150436
263.150424
263.150412
263.150401
263.150389
263.150379
263.150368
263.150358
263.150348
263.150338
263.150328
263.150319
263.150310
263.150302
263.150293
263.150285
263.150277
263.150269
263.150261
263.150254
263.150247
263.150240
263.150233
263.150226
263.150220
263.150214
263.150207
263.150202
263.150196
263.150190
263.150185
263.150179
263.150174
263.150169
263.150164
263.150160
263.150155
263.150151
263.150146
263.150142
263.150138
263.150134
263.150130
263.150126
263.150122
263.150119
263.150115
263.150112
263.150109
263.150106
263.150103
263.150100
263.150097
263.150094
263.150091
263.150088
263.150086
263.150083
263.150081
263.150078
263.150076
263.150074
263.150072
263.150069
263.150067
263.150065
263.150063
263.150062
263.150060
263.150058
263.150056
263.150054
263.150053
263.150051
263.150050
263.150048
263.150047
263.150045
263.150044
263.150043
263.150041
263.150040
263.150039
263.150038
263.150037
263.150035
263.150034
263.150033
263.150032
263.150031
263.150030
263.150029
263.150029
263.150028
263.150027
263.150026
263.150025
263.150024
263.150024
263.150023
263.150022
263.150022
263.150021
263.150020
263.150020
263.150019
263.150018
263.150018
263.150017
263.150017
263.150016
263.150016
263.150015
263.150015
263.150014
263.150014
263.150013
263.150013
263.150013
263.150012
263.150012
263.150011
263.150011
263.150011
263.150010
263.150010
263.150010
263.150009
263.150009
263.150009
263.150008
263.150008
263.150008
263.150008
263.150007
263.150007
263.150007
263.150007
263.150006
263.150006
263.150006
263.150006
263.150006
263.150005
263.150005
263.150005
263.150005
263.150005
263.150005
263.150004
263.150004
263.150004
263.150004
263.150004
263.150004
263.150004
263.150003
263.150003
263.150003
263.150003
263.150003
263.150003
263.150003
263.150003
263.150002
263.150002
263.150002
263.150002
263.150002
263.150002
263.150002
263.150002
263.150002
263.150002
263.150001
263.150001
263.150001
263.150001
263.150001
263.150001
263.150001
263.150001
263.150001
263.150001
263.150001
263.150001
263.150001
263.150000
263.150000
263.150000
263.150000
263.150000
263.150000
263.150000
        </DataArray>
      </PointData>
      <CellData>
      </CellData>
    </Piece>
  </UnstructuredGrid>
</VTKFile>
