<?xml version="1.0"?>
<VTKFile type="UnstructuredGrid" version="0.1" byte_order="LittleEndian">
  <UnstructuredGrid>
    <Piece NumberOfPoints="801" NumberOfCells="800">
      <Points>
        <DataArray type="Float32" NumberOfComponents="3" format="ascii">
0.000000 0.0 0.0
0.005000 0.0 0.0
0.010000 0.0 0.0
0.015000 0.0 0.0
0.020000 0.0 0.0
0.025000 0.0 0.0
0.030000 0.0 0.0
0.035000 0.0 0.0
0.040000 0.0 0.0
0.045000 0.0 0.0
0.050000 0.0 0.0
0.055000 0.0 0.0
0.060000 0.0 0.0
0.065000 0.0 0.0
0.070000 0.0 0.0
0.075000 0.0 0.0
0.080000 0.0 0.0
0.085000 0.0 0.0
0.090000 0.0 0.0
0.095000 0.0 0.0
0.100000 0.0 0.0
0.105000 0.0 0.0
0.110000 0.0 0.0
0.115000 0.0 0.0
0.120000 0.0 0.0
0.125000 0.0 0.0
0.130000 0.0 0.0
0.135000 0.0 0.0
0.140000 0.0 0.0
0.145000 0.0 0.0
0.150000 0.0 0.0
0.155000 0.0 0.0
0.160000 0.0 0.0
0.165000 0.0 0.0
0.170000 0.0 0.0
0.175000 0.0 0.0
0.180000 0.0 0.0
0.185000 0.0 0.0
0.190000 0.0 0.0
0.195000 0.0 0.0
0.200000 0.0 0.0
0.205000 0.0 0.0
0.210000 0.0 0.0
0.215000 0.0 0.0
0.220000 0.0 0.0
0.225000 0.0 0.0
0.230000 0.0 0.0
0.235000 0.0 0.0
0.240000 0.0 0.0
0.245000 0.0 0.0
0.250000 0.0 0.0
0.255000 0.0 0.0
0.260000 0.0 0.0
0.265000 0.0 0.0
0.270000 0.0 0.0
0.275000 0.0 0.0
0.280000 0.0 0.0
0.285000 0.0 0.0
0.290000 0.0 0.0
0.295000 0.0 0.0
0.300000 0.0 0.0
0.305000 0.0 0.0
0.310000 0.0 0.0
0.315000 0.0 0.0
0.320000 0.0 0.0
0.325000 0.0 0.0
0.330000 0.0 0.0
0.335000 0.0 0.0
0.340000 0.0 0.0
0.345000 0.0 0.0
0.350000 0.0 0.0
0.355000 0.0 0.0
0.360000 0.0 0.0
0.365000 0.0 0.0
0.370000 0.0 0.0
0.375000 0.0 0.0
0.380000 0.0 0.0
0.385000 0.0 0.0
0.390000 0.0 0.0
0.395000 0.0 0.0
0.400000 0.0 0.0
0.405000 0.0 0.0
0.410000 0.0 0.0
0.415000 0.0 0.0
0.420000 0.0 0.0
0.425000 0.0 0.0
0.430000 0.0 0.0
0.435000 0.0 0.0
0.440000 0.0 0.0
0.445000 0.0 0.0
0.450000 0.0 0.0
0.455000 0.0 0.0
0.460000 0.0 0.0
0.465000 0.0 0.0
0.470000 0.0 0.0
0.475000 0.0 0.0
0.480000 0.0 0.0
0.485000 0.0 0.0
0.490000 0.0 0.0
0.495000 0.0 0.0
0.500000 0.0 0.0
0.505000 0.0 0.0
0.510000 0.0 0.0
0.515000 0.0 0.0
0.520000 0.0 0.0
0.525000 0.0 0.0
0.530000 0.0 0.0
0.535000 0.0 0.0
0.540000 0.0 0.0
0.545000 0.0 0.0
0.550000 0.0 0.0
0.555000 0.0 0.0
0.560000 0.0 0.0
0.565000 0.0 0.0
0.570000 0.0 0.0
0.575000 0.0 0.0
0.580000 0.0 0.0
0.585000 0.0 0.0
0.590000 0.0 0.0
0.595000 0.0 0.0
0.600000 0.0 0.0
0.605000 0.0 0.0
0.610000 0.0 0.0
0.615000 0.0 0.0
0.620000 0.0 0.0
0.625000 0.0 0.0
0.630000 0.0 0.0
0.635000 0.0 0.0
0.640000 0.0 0.0
0.645000 0.0 0.0
0.650000 0.0 0.0
0.655000 0.0 0.0
0.660000 0.0 0.0
0.665000 0.0 0.0
0.670000 0.0 0.0
0.675000 0.0 0.0
0.680000 0.0 0.0
0.685000 0.0 0.0
0.690000 0.0 0.0
0.695000 0.0 0.0
0.700000 0.0 0.0
0.705000 0.0 0.0
0.710000 0.0 0.0
0.715000 0.0 0.0
0.720000 0.0 0.0
0.725000 0.0 0.0
0.730000 0.0 0.0
0.735000 0.0 0.0
0.740000 0.0 0.0
0.745000 0.0 0.0
0.750000 0.0 0.0
0.755000 0.0 0.0
0.760000 0.0 0.0
0.765000 0.0 0.0
0.770000 0.0 0.0
0.775000 0.0 0.0
0.780000 0.0 0.0
0.785000 0.0 0.0
0.790000 0.0 0.0
0.795000 0.0 0.0
0.800000 0.0 0.0
0.805000 0.0 0.0
0.810000 0.0 0.0
0.815000 0.0 0.0
0.820000 0.0 0.0
0.825000 0.0 0.0
0.830000 0.0 0.0
0.835000 0.0 0.0
0.840000 0.0 0.0
0.845000 0.0 0.0
0.850000 0.0 0.0
0.855000 0.0 0.0
0.860000 0.0 0.0
0.865000 0.0 0.0
0.870000 0.0 0.0
0.875000 0.0 0.0
0.880000 0.0 0.0
0.885000 0.0 0.0
0.890000 0.0 0.0
0.895000 0.0 0.0
0.900000 0.0 0.0
0.905000 0.0 0.0
0.910000 0.0 0.0
0.915000 0.0 0.0
0.920000 0.0 0.0
0.925000 0.0 0.0
0.930000 0.0 0.0
0.935000 0.0 0.0
0.940000 0.0 0.0
0.945000 0.0 0.0
0.950000 0.0 0.0
0.955000 0.0 0.0
0.960000 0.0 0.0
0.965000 0.0 0.0
0.970000 0.0 0.0
0.975000 0.0 0.0
0.980000 0.0 0.0
0.985000 0.0 0.0
0.990000 0.0 0.0
0.995000 0.0 0.0
1.000000 0.0 0.0
1.005000 0.0 0.0
1.010000 0.0 0.0
1.015000 0.0 0.0
1.020000 0.0 0.0
1.025000 0.0 0.0
1.030000 0.0 0.0
1.035000 0.0 0.0
1.040000 0.0 0.0
1.045000 0.0 0.0
1.050000 0.0 0.0
1.055000 0.0 0.0
1.060000 0.0 0.0
1.065000 0.0 0.0
1.070000 0.0 0.0
1.075000 0.0 0.0
1.080000 0.0 0.0
1.085000 0.0 0.0
1.090000 0.0 0.0
1.095000 0.0 0.0
1.100000 0.0 0.0
1.105000 0.0 0.0
1.110000 0.0 0.0
1.115000 0.0 0.0
1.120000 0.0 0.0
1.125000 0.0 0.0
1.130000 0.0 0.0
1.135000 0.0 0.0
1.140000 0.0 0.0
1.145000 0.0 0.0
1.150000 0.0 0.0
1.155000 0.0 0.0
1.160000 0.0 0.0
1.165000 0.0 0.0
1.170000 0.0 0.0
1.175000 0.0 0.0
1.180000 0.0 0.0
1.185000 0.0 0.0
1.190000 0.0 0.0
1.195000 0.0 0.0
1.200000 0.0 0.0
1.205000 0.0 0.0
1.210000 0.0 0.0
1.215000 0.0 0.0
1.220000 0.0 0.0
1.225000 0.0 0.0
1.230000 0.0 0.0
1.235000 0.0 0.0
1.240000 0.0 0.0
1.245000 0.0 0.0
1.250000 0.0 0.0
1.255000 0.0 0.0
1.260000 0.0 0.0
1.265000 0.0 0.0
1.270000 0.0 0.0
1.275000 0.0 0.0
1.280000 0.0 0.0
1.285000 0.0 0.0
1.290000 0.0 0.0
1.295000 0.0 0.0
1.300000 0.0 0.0
1.305000 0.0 0.0
1.310000 0.0 0.0
1.315000 0.0 0.0
1.320000 0.0 0.0
1.325000 0.0 0.0
1.330000 0.0 0.0
1.335000 0.0 0.0
1.340000 0.0 0.0
1.345000 0.0 0.0
1.350000 0.0 0.0
1.355000 0.0 0.0
1.360000 0.0 0.0
1.365000 0.0 0.0
1.370000 0.0 0.0
1.375000 0.0 0.0
1.380000 0.0 0.0
1.385000 0.0 0.0
1.390000 0.0 0.0
1.395000 0.0 0.0
1.400000 0.0 0.0
1.405000 0.0 0.0
1.410000 0.0 0.0
1.415000 0.0 0.0
1.420000 0.0 0.0
1.425000 0.0 0.0
1.430000 0.0 0.0
1.435000 0.0 0.0
1.440000 0.0 0.0
1.445000 0.0 0.0
1.450000 0.0 0.0
1.455000 0.0 0.0
1.460000 0.0 0.0
1.465000 0.0 0.0
1.470000 0.0 0.0
1.475000 0.0 0.0
1.480000 0.0 0.0
1.485000 0.0 0.0
1.490000 0.0 0.0
1.495000 0.0 0.0
1.500000 0.0 0.0
1.505000 0.0 0.0
1.510000 0.0 0.0
1.515000 0.0 0.0
1.520000 0.0 0.0
1.525000 0.0 0.0
1.530000 0.0 0.0
1.535000 0.0 0.0
1.540000 0.0 0.0
1.545000 0.0 0.0
1.550000 0.0 0.0
1.555000 0.0 0.0
1.560000 0.0 0.0
1.565000 0.0 0.0
1.570000 0.0 0.0
1.575000 0.0 0.0
1.580000 0.0 0.0
1.585000 0.0 0.0
1.590000 0.0 0.0
1.595000 0.0 0.0
1.600000 0.0 0.0
1.605000 0.0 0.0
1.610000 0.0 0.0
1.615000 0.0 0.0
1.620000 0.0 0.0
1.625000 0.0 0.0
1.630000 0.0 0.0
1.635000 0.0 0.0
1.640000 0.0 0.0
1.645000 0.0 0.0
1.650000 0.0 0.0
1.655000 0.0 0.0
1.660000 0.0 0.0
1.665000 0.0 0.0
1.670000 0.0 0.0
1.675000 0.0 0.0
1.680000 0.0 0.0
1.685000 0.0 0.0
1.690000 0.0 0.0
1.695000 0.0 0.0
1.700000 0.0 0.0
1.705000 0.0 0.0
1.710000 0.0 0.0
1.715000 0.0 0.0
1.720000 0.0 0.0
1.725000 0.0 0.0
1.730000 0.0 0.0
1.735000 0.0 0.0
1.740000 0.0 0.0
1.745000 0.0 0.0
1.750000 0.0 0.0
1.755000 0.0 0.0
1.760000 0.0 0.0
1.765000 0.0 0.0
1.770000 0.0 0.0
1.775000 0.0 0.0
1.780000 0.0 0.0
1.785000 0.0 0.0
1.790000 0.0 0.0
1.795000 0.0 0.0
1.800000 0.0 0.0
1.805000 0.0 0.0
1.810000 0.0 0.0
1.815000 0.0 0.0
1.820000 0.0 0.0
1.825000 0.0 0.0
1.830000 0.0 0.0
1.835000 0.0 0.0
1.840000 0.0 0.0
1.845000 0.0 0.0
1.850000 0.0 0.0
1.855000 0.0 0.0
1.860000 0.0 0.0
1.865000 0.0 0.0
1.870000 0.0 0.0
1.875000 0.0 0.0
1.880000 0.0 0.0
1.885000 0.0 0.0
1.890000 0.0 0.0
1.895000 0.0 0.0
1.900000 0.0 0.0
1.905000 0.0 0.0
1.910000 0.0 0.0
1.915000 0.0 0.0
1.920000 0.0 0.0
1.925000 0.0 0.0
1.930000 0.0 0.0
1.935000 0.0 0.0
1.940000 0.0 0.0
1.945000 0.0 0.0
1.950000 0.0 0.0
1.955000 0.0 0.0
1.960000 0.0 0.0
1.965000 0.0 0.0
1.970000 0.0 0.0
1.975000 0.0 0.0
1.980000 0.0 0.0
1.985000 0.0 0.0
1.990000 0.0 0.0
1.995000 0.0 0.0
2.000000 0.0 0.0
2.005000 0.0 0.0
2.010000 0.0 0.0
2.015000 0.0 0.0
2.020000 0.0 0.0
2.025000 0.0 0.0
2.030000 0.0 0.0
2.035000 0.0 0.0
2.040000 0.0 0.0
2.045000 0.0 0.0
2.050000 0.0 0.0
2.055000 0.0 0.0
2.060000 0.0 0.0
2.065000 0.0 0.0
2.070000 0.0 0.0
2.075000 0.0 0.0
2.080000 0.0 0.0
2.085000 0.0 0.0
2.090000 0.0 0.0
2.095000 0.0 0.0
2.100000 0.0 0.0
2.105000 0.0 0.0
2.110000 0.0 0.0
2.115000 0.0 0.0
2.120000 0.0 0.0
2.125000 0.0 0.0
2.130000 0.0 0.0
2.135000 0.0 0.0
2.140000 0.0 0.0
2.145000 0.0 0.0
2.150000 0.0 0.0
2.155000 0.0 0.0
2.160000 0.0 0.0
2.165000 0.0 0.0
2.170000 0.0 0.0
2.175000 0.0 0.0
2.180000 0.0 0.0
2.185000 0.0 0.0
2.190000 0.0 0.0
2.195000 0.0 0.0
2.200000 0.0 0.0
2.205000 0.0 0.0
2.210000 0.0 0.0
2.215000 0.0 0.0
2.220000 0.0 0.0
2.225000 0.0 0.0
2.230000 0.0 0.0
2.235000 0.0 0.0
2.240000 0.0 0.0
2.245000 0.0 0.0
2.250000 0.0 0.0
2.255000 0.0 0.0
2.260000 0.0 0.0
2.265000 0.0 0.0
2.270000 0.0 0.0
2.275000 0.0 0.0
2.280000 0.0 0.0
2.285000 0.0 0.0
2.290000 0.0 0.0
2.295000 0.0 0.0
2.300000 0.0 0.0
2.305000 0.0 0.0
2.310000 0.0 0.0
2.315000 0.0 0.0
2.320000 0.0 0.0
2.325000 0.0 0.0
2.330000 0.0 0.0
2.335000 0.0 0.0
2.340000 0.0 0.0
2.345000 0.0 0.0
2.350000 0.0 0.0
2.355000 0.0 0.0
2.360000 0.0 0.0
2.365000 0.0 0.0
2.370000 0.0 0.0
2.375000 0.0 0.0
2.380000 0.0 0.0
2.385000 0.0 0.0
2.390000 0.0 0.0
2.395000 0.0 0.0
2.400000 0.0 0.0
2.405000 0.0 0.0
2.410000 0.0 0.0
2.415000 0.0 0.0
2.420000 0.0 0.0
2.425000 0.0 0.0
2.430000 0.0 0.0
2.435000 0.0 0.0
2.440000 0.0 0.0
2.445000 0.0 0.0
2.450000 0.0 0.0
2.455000 0.0 0.0
2.460000 0.0 0.0
2.465000 0.0 0.0
2.470000 0.0 0.0
2.475000 0.0 0.0
2.480000 0.0 0.0
2.485000 0.0 0.0
2.490000 0.0 0.0
2.495000 0.0 0.0
2.500000 0.0 0.0
2.505000 0.0 0.0
2.510000 0.0 0.0
2.515000 0.0 0.0
2.520000 0.0 0.0
2.525000 0.0 0.0
2.530000 0.0 0.0
2.535000 0.0 0.0
2.540000 0.0 0.0
2.545000 0.0 0.0
2.550000 0.0 0.0
2.555000 0.0 0.0
2.560000 0.0 0.0
2.565000 0.0 0.0
2.570000 0.0 0.0
2.575000 0.0 0.0
2.580000 0.0 0.0
2.585000 0.0 0.0
2.590000 0.0 0.0
2.595000 0.0 0.0
2.600000 0.0 0.0
2.605000 0.0 0.0
2.610000 0.0 0.0
2.615000 0.0 0.0
2.620000 0.0 0.0
2.625000 0.0 0.0
2.630000 0.0 0.0
2.635000 0.0 0.0
2.640000 0.0 0.0
2.645000 0.0 0.0
2.650000 0.0 0.0
2.655000 0.0 0.0
2.660000 0.0 0.0
2.665000 0.0 0.0
2.670000 0.0 0.0
2.675000 0.0 0.0
2.680000 0.0 0.0
2.685000 0.0 0.0
2.690000 0.0 0.0
2.695000 0.0 0.0
2.700000 0.0 0.0
2.705000 0.0 0.0
2.710000 0.0 0.0
2.715000 0.0 0.0
2.720000 0.0 0.0
2.725000 0.0 0.0
2.730000 0.0 0.0
2.735000 0.0 0.0
2.740000 0.0 0.0
2.745000 0.0 0.0
2.750000 0.0 0.0
2.755000 0.0 0.0
2.760000 0.0 0.0
2.765000 0.0 0.0
2.770000 0.0 0.0
2.775000 0.0 0.0
2.780000 0.0 0.0
2.785000 0.0 0.0
2.790000 0.0 0.0
2.795000 0.0 0.0
2.800000 0.0 0.0
2.805000 0.0 0.0
2.810000 0.0 0.0
2.815000 0.0 0.0
2.820000 0.0 0.0
2.825000 0.0 0.0
2.830000 0.0 0.0
2.835000 0.0 0.0
2.840000 0.0 0.0
2.845000 0.0 0.0
2.850000 0.0 0.0
2.855000 0.0 0.0
2.860000 0.0 0.0
[...]
      <PointData Scalars="Temperature">
        <DataArray type="Float32" Name="Temperature" format="ascii">
308.150000
306.872673
305.595815
304.319891
303.045370
301.772715
300.502390
299.234855
297.970567
296.709979
295.453540
294.201696
292.954885
291.713542
290.478093
289.248960
288.026556
286.811288
285.603554
284.403744
283.212239
282.029413
280.855632
279.691252
278.536623
277.392089
276.257990
275.134755
274.042952
273.343045
273.063055
272.902871
272.784959
272.687147
272.600597
272.520994
272.445946
272.374014
272.304280
272.236134
272.169160
272.103068
272.037652
271.972767
271.908307
271.844196
271.780381
271.716821
271.653489
271.590365
271.527434
271.464689
271.402121
271.339728
271.277508
271.215459
271.153582
271.091878
271.030348
270.968993
270.907817
270.846820
270.786007
270.725377
270.664936
270.604684
270.544625
270.484761
270.425095
270.365629
270.306365
270.247307
270.188457
270.129817
270.071390
270.013178
269.955184
269.897410
269.839858
269.782530
269.725430
269.668558
269.611918
269.555512
269.499341
269.443407
269.387714
269.332262
269.277054
269.222092
269.167378
269.112913
269.058700
269.004740
268.951035
268.897587
268.844397
268.791468
268.738800
268.686396
268.634257
268.582384
268.530779
268.479443
268.428379
268.377586
268.327067
268.276823
268.226855
268.177165
268.127753
268.078620
268.029769
267.981199
267.932912
267.884909
267.837190
267.789758
267.742612
267.695754
267.649183
267.602902
267.556911
267.511211
267.465801
267.420683
267.375858
267.331326
267.287087
267.243142
267.199492
267.156136
267.113076
267.070311
267.027842
266.985669
266.943792
266.902212
266.860929
266.819942
266.779253
266.738860
266.698765
266.658966
266.619465
266.580260
266.541353
266.502742
266.464427
266.426409
266.388687
266.351261
266.314131
266.277295
266.240755
266.204509
266.168558
266.132900
266.097535
266.062463
266.027683
265.993195
265.958997
265.925091
265.891474
265.858146
265.825107
265.792355
265.759890
265.727712
265.695819
265.664211
265.632887
265.601845
265.571086
265.540608
265.510410
265.480491
265.450851
265.421488
265.392401
265.363590
265.335052
265.306788
265.278796
265.251075
265.223623
265.196440
265.169525
265.142875
265.116491
265.090370
265.064513
265.038916
265.013579
264.988501
264.963681
264.939117
264.914807
264.890751
264.866947
264.843394
264.820089
264.797033
264.774223
264.751659
264.729338
264.707259
264.685421
264.663822
264.642461
264.621336
264.600446
264.579789
264.559364
264.539169
264.519203
264.499464
264.479950
264.460661
264.441594
264.422749
264.404122
264.385714
264.367521
264.349543
264.331779
264.314226
264.296882
264.279747
264.262818
264.246095
264.229575
264.213257
264.197139
264.181219
264.165497
264.149970
264.134636
264.119495
264.104544
264.089782
264.075208
264.060819
264.046614
264.032591
264.018749
264.005086
263.991601
263.978292
263.965157
263.952195
263.939404
263.926783
263.914329
263.902042
263.889919
263.877960
263.866162
263.854525
263.843045
263.831723
263.820556
263.809542
263.798681
263.787970
263.777409
263.766995
263.756727
263.746603
263.736623
263.726783
263.717084
263.707524
263.698100
263.688812
263.679658
263.670636
263.661746
263.652985
263.644352
263.635846
263.627465
263.619208
263.611074
263.603061
263.595167
263.587392
263.579733
263.572190
263.564761
263.557445
263.550241
263.543146
263.536160
263.529282
263.522510
263.515843
263.509279
263.502818
263.496457
263.490197
263.484035
263.477970
263.472001
263.466127
263.460346
263.454658
263.449061
263.443554
263.438136
263.432805
263.427561
263.422403
263.417328
263.412337
263.407427
263.402599
263.397850
263.393180
263.388587
263.384072
263.379631
263.375265
263.370972
263.366752
263.362603
263.358525
263.354516
263.350575
263.346702
263.342895
263.339153
263.335477
263.331863
263.328313
263.324824
263.321396
263.318028
263.314719
263.311468
263.308275
263.305138
263.302057
263.299030
263.296058
263.293138
263.290271
263.287455
263.284691
263.281976
263.279310
263.276693
263.274123
263.271600
263.269124
263.266693
263.264306
263.261964
263.259665
263.257408
263.255194
263.253021
263.250888
263.248795
263.246742
263.244727
263.242750
263.240811
263.238909
263.237042
263.235211
263.233415
263.231654
263.229926
263.228232
263.226570
263.224941
263.223343
263.221776
263.220239
263.218733
263.217256
263.215808
263.214388
263.212997
263.211633
263.210296
263.208985
263.207701
263.206442
263.205208
263.203999
263.202814
263.201653
263.200516
263.199401
263.198309
263.197240
263.196192
263.195165
263.194159
263.193174
263.192209
263.191264
263.190339
263.189432
263.188545
263.187676
263.186825
263.185991
263.185175
263.184376
263.183594
263.182829
263.182079
263.181345
263.180627
263.179924
263.179236
263.178563
263.177904
263.177259
263.176627
263.176010
263.175406
263.174814
263.174236
263.173670
263.173116
263.172575
263.172045
263.171526
263.171019
263.170523
263.170039
263.169564
263.169100
263.168647
263.168203
263.167769
263.167345
263.166931
263.166525
263.166129
263.165741
263.165362
263.164992
263.164630
263.164276
263.163931
263.163593
263.163262
263.162940
263.162624
263.162316
263.162015
263.161720
263.161433
263.161152
263.160878
263.160609
263.160348
263.160092
263.159842
263.159598
263.159359
263.159126
263.158899
263.158677
263.158460
263.158248
263.158041
263.157839
263.157642
263.157450
263.157262
263.157078
263.156899
263.156724
263.156554
263.156387
263.156225
263.156066
263.155911
263.155760
263.155612
263.155468
263.155328
263.155191
263.155057
263.154927
263.154800
263.154675
263.154554
263.154436
263.154321
263.154208
263.154099
263.153992
263.153887
263.153786
263.153686
263.153590
263.153495
263.153403
263.153314
263.153226
263.153141
263.153058
263.152977
263.152898
263.152821
263.152746
263.152672
263.152601
263.152532
263.152464
263.152398
263.152333
263.152271
263.152210
263.152150
263.152092
263.152035
263.151980
263.151927
263.151874
263.151824
263.151774
263.151726
263.151679
263.151633
263.151588
263.151545
263.151502
263.151461
263.151421
263.151382
263.151344
263.151306
263.151270
263.151235
263.151201
263.151168
263.151135
263.151104
263.151073
263.151043
263.151014
263.150986
263.150958
263.150931
263.150905
263.150880
263.150855
263.150831
263.150807
263.150784
263.150762
263.150741
263.150720
263.150699
263.150679
263.150660
263.150641
263.150623
263.150605
263.150588
263.150571
263.150555
263.150539
263.150523
263.150508
263.150494
263.150479
263.150465
263.150452
263.150439
263.150426
263.150414
263.150402
263.150390
263.150379
263.150368
263.150357
263.150347
263.150336
263.150327
263.150317
263.150308
263.150299
263.150290
263.150281
263.150273
263.150265
263.150257
263.150250
263.150242
263.150235
263.150228
263.150221
263.150215
263.150208
263.150202
263.150196
263.150190
263.150184
263.150179
263.150174
263.150168
263.150163
263.150158
263.150154
263.150149
263.150144
263.150140
263.150136
263.150132
263.150128
263.150124
263.150120
263.150116
263.150113
263.150109
263.150106
263.150103
263.150100
263.150097
263.150094
263.150091
263.150088
263.150085
263.150083
263.150080
263.150078
263.150075
263.150073
263.150071
263.150068
263.150066
263.150064
263.150062
263.150060
263.150058
263.150057
263.150055
263.150053
263.150052
263.150050
263.150048
263.150047
263.150045
263.150044
263.150043
263.150041
263.150040
263.150039
263.150037
263.150036
263.150035
263.150034
263.150033
263.150032
263.150031
263.150030
263.150029
263.150028
263.150027
263.150026
263.150025
263.150025
263.150024
263.150023
263.150022
263.150022
263.150021
263.150020
263.150020
263.150019
263.150018
263.150018
263.150017
263.150017
263.150016
263.150016
263.150015
263.150015
263.150014
263.150014
263.150013
263.150013
263.150012
263.150012
263.150012
263.150011
263.150011
263.150010
263.150010
263.150010
263.150009
263.150009
263.150009
263.150009
263.150008
263.150008
263.150008
263.150007
263.150007
263.150007
263.150007
263.150007
263.150006
263.150006
263.150006
263.150006
263.150005
263.150005
263.150005
263.150005
263.150005
263.150005
263.150004
263.150004
263.150004
263.150004
263.150004
263.150004
263.150004
263.150004
263.150003
263.150003
263.150003
263.150003
263.150003
263.150003
263.150003
263.150003
263.150003
263.150002
263.150002
263.150002
263.150002
263.150002
263.150002
263.150002
263.150002
263.150002
263.150002
263.150002
263.150002
263.150002
263.150002
263.150001
263.150001
263.150001
263.150001
263.150001
263.150001
263.150001
263.150001
263.150001
263.150001
263.150001
263.150001
263.150001
263.150001
263.150001
263.150001
263.150001
263.150001
263.150001
263.150001
263.150001
263.150001
263.150001
263.150001
263.150001
263.150001
263.150000
263.150000
263.150000
263.150000
263.150000
263.150000
263.150000
263.150000
263.150000
263.150000
263.150000
263.150000
263.150000
263.150000
263.150000
263.150000
263.150000
263.150000
263.150000
263.150000
263.150000
263.150000
        </DataArray>
      </PointData>
      <CellData>
      </CellData>
    </Piece>
  </UnstructuredGrid>
</VTKFile>
