<?xml version="1.0"?>
<VTKFile type="UnstructuredGrid" version="0.1" byte_order="LittleEndian">
  <UnstructuredGrid>
    <Piece NumberOfPoints="801" NumberOfCells="800">
      <Points>
        <DataArray type="Float32" NumberOfComponents="3" format="ascii">
0.000000 0.0 0.0
0.005000 0.0 0.0
0.010000 0.0 0.0
0.015000 0.0 0.0
0.020000 0.0 0.0
0.025000 0.0 0.0
0.030000 0.0 0.0
0.035000 0.0 0.0
0.040000 0.0 0.0
0.045000 0.0 0.0
0.050000 0.0 0.0
0.055000 0.0 0.0
0.060000 0.0 0.0
0.065000 0.0 0.0
0.070000 0.0 0.0
0.075000 0.0 0.0
0.080000 0.0 0.0
0.085000 0.0 0.0
0.090000 0.0 0.0
0.095000 0.0 0.0
0.100000 0.0 0.0
0.105000 0.0 0.0
0.110000 0.0 0.0
0.115000 0.0 0.0
0.120000 0.0 0.0
0.125000 0.0 0.0
0.130000 0.0 0.0
0.135000 0.0 0.0
0.140000 0.0 0.0
0.145000 0.0 0.0
0.150000 0.0 0.0
0.155000 0.0 0.0
0.160000 0.0 0.0
0.165000 0.0 0.0
0.170000 0.0 0.0
0.175000 0.0 0.0
0.180000 0.0 0.0
0.185000 0.0 0.0
0.190000 0.0 0.0
0.195000 0.0 0.0
0.200000 0.0 0.0
0.205000 0.0 0.0
0.210000 0.0 0.0
0.215000 0.0 0.0
0.220000 0.0 0.0
0.225000 0.0 0.0
0.230000 0.0 0.0
0.235000 0.0 0.0
0.240000 0.0 0.0
0.245000 0.0 0.0
0.250000 0.0 0.0
0.255000 0.0 0.0
0.260000 0.0 0.0
0.265000 0.0 0.0
0.270000 0.0 0.0
0.275000 0.0 0.0
0.280000 0.0 0.0
0.285000 0.0 0.0
0.290000 0.0 0.0
0.295000 0.0 0.0
0.300000 0.0 0.0
0.305000 0.0 0.0
0.310000 0.0 0.0
0.315000 0.0 0.0
0.320000 0.0 0.0
0.325000 0.0 0.0
0.330000 0.0 0.0
0.335000 0.0 0.0
0.340000 0.0 0.0
0.345000 0.0 0.0
0.350000 0.0 0.0
0.355000 0.0 0.0
0.360000 0.0 0.0
0.365000 0.0 0.0
0.370000 0.0 0.0
0.375000 0.0 0.0
0.380000 0.0 0.0
0.385000 0.0 0.0
0.390000 0.0 0.0
0.395000 0.0 0.0
0.400000 0.0 0.0
0.405000 0.0 0.0
0.410000 0.0 0.0
0.415000 0.0 0.0
0.420000 0.0 0.0
0.425000 0.0 0.0
0.430000 0.0 0.0
0.435000 0.0 0.0
0.440000 0.0 0.0
0.445000 0.0 0.0
0.450000 0.0 0.0
0.455000 0.0 0.0
0.460000 0.0 0.0
0.465000 0.0 0.0
0.470000 0.0 0.0
0.475000 0.0 0.0
0.480000 0.0 0.0
0.485000 0.0 0.0
0.490000 0.0 0.0
0.495000 0.0 0.0
0.500000 0.0 0.0
0.505000 0.0 0.0
0.510000 0.0 0.0
0.515000 0.0 0.0
0.520000 0.0 0.0
0.525000 0.0 0.0
0.530000 0.0 0.0
0.535000 0.0 0.0
0.540000 0.0 0.0
0.545000 0.0 0.0
0.550000 0.0 0.0
0.555000 0.0 0.0
0.560000 0.0 0.0
0.565000 0.0 0.0
0.570000 0.0 0.0
0.575000 0.0 0.0
0.580000 0.0 0.0
0.585000 0.0 0.0
0.590000 0.0 0.0
0.595000 0.0 0.0
0.600000 0.0 0.0
0.605000 0.0 0.0
0.610000 0.0 0.0
0.615000 0.0 0.0
0.620000 0.0 0.0
0.625000 0.0 0.0
0.630000 0.0 0.0
0.635000 0.0 0.0
0.640000 0.0 0.0
0.645000 0.0 0.0
0.650000 0.0 0.0
0.655000 0.0 0.0
0.660000 0.0 0.0
0.665000 0.0 0.0
0.670000 0.0 0.0
0.675000 0.0 0.0
0.680000 0.0 0.0
0.685000 0.0 0.0
0.690000 0.0 0.0
0.695000 0.0 0.0
0.700000 0.0 0.0
0.705000 0.0 0.0
0.710000 0.0 0.0
0.715000 0.0 0.0
0.720000 0.0 0.0
0.725000 0.0 0.0
0.730000 0.0 0.0
0.735000 0.0 0.0
0.740000 0.0 0.0
0.745000 0.0 0.0
0.750000 0.0 0.0
0.755000 0.0 0.0
0.760000 0.0 0.0
0.765000 0.0 0.0
0.770000 0.0 0.0
0.775000 0.0 0.0
0.780000 0.0 0.0
0.785000 0.0 0.0
0.790000 0.0 0.0
0.795000 0.0 0.0
0.800000 0.0 0.0
0.805000 0.0 0.0
0.810000 0.0 0.0
0.815000 0.0 0.0
0.820000 0.0 0.0
0.825000 0.0 0.0
0.830000 0.0 0.0
0.835000 0.0 0.0
0.840000 0.0 0.0
0.845000 0.0 0.0
0.850000 0.0 0.0
0.855000 0.0 0.0
0.860000 0.0 0.0
0.865000 0.0 0.0
0.870000 0.0 0.0
0.875000 0.0 0.0
0.880000 0.0 0.0
0.885000 0.0 0.0
0.890000 0.0 0.0
0.895000 0.0 0.0
0.900000 0.0 0.0
0.905000 0.0 0.0
0.910000 0.0 0.0
0.915000 0.0 0.0
0.920000 0.0 0.0
0.925000 0.0 0.0
0.930000 0.0 0.0
0.935000 0.0 0.0
0.940000 0.0 0.0
0.945000 0.0 0.0
0.950000 0.0 0.0
0.955000 0.0 0.0
0.960000 0.0 0.0
0.965000 0.0 0.0
0.970000 0.0 0.0
0.975000 0.0 0.0
0.980000 0.0 0.0
0.985000 0.0 0.0
0.990000 0.0 0.0
0.995000 0.0 0.0
1.000000 0.0 0.0
1.005000 0.0 0.0
1.010000 0.0 0.0
1.015000 0.0 0.0
1.020000 0.0 0.0
1.025000 0.0 0.0
1.030000 0.0 0.0
1.035000 0.0 0.0
1.040000 0.0 0.0
1.045000 0.0 0.0
1.050000 0.0 0.0
1.055000 0.0 0.0
1.060000 0.0 0.0
1.065000 0.0 0.0
1.070000 0.0 0.0
1.075000 0.0 0.0
1.080000 0.0 0.0
1.085000 0.0 0.0
1.090000 0.0 0.0
1.095000 0.0 0.0
1.100000 0.0 0.0
1.105000 0.0 0.0
1.110000 0.0 0.0
1.115000 0.0 0.0
1.120000 0.0 0.0
1.125000 0.0 0.0
1.130000 0.0 0.0
1.135000 0.0 0.0
1.140000 0.0 0.0
1.145000 0.0 0.0
1.150000 0.0 0.0
1.155000 0.0 0.0
1.160000 0.0 0.0
1.165000 0.0 0.0
1.170000 0.0 0.0
1.175000 0.0 0.0
1.180000 0.0 0.0
1.185000 0.0 0.0
1.190000 0.0 0.0
1.195000 0.0 0.0
1.200000 0.0 0.0
1.205000 0.0 0.0
1.210000 0.0 0.0
1.215000 0.0 0.0
1.220000 0.0 0.0
1.225000 0.0 0.0
1.230000 0.0 0.0
1.235000 0.0 0.0
1.240000 0.0 0.0
1.245000 0.0 0.0
1.250000 0.0 0.0
1.255000 0.0 0.0
1.260000 0.0 0.0
1.265000 0.0 0.0
1.270000 0.0 0.0
1.275000 0.0 0.0
1.280000 0.0 0.0
1.285000 0.0 0.0
1.290000 0.0 0.0
1.295000 0.0 0.0
1.300000 0.0 0.0
1.305000 0.0 0.0
1.310000 0.0 0.0
1.315000 0.0 0.0
1.320000 0.0 0.0
1.325000 0.0 0.0
1.330000 0.0 0.0
1.335000 0.0 0.0
1.340000 0.0 0.0
1.345000 0.0 0.0
1.350000 0.0 0.0
1.355000 0.0 0.0
1.360000 0.0 0.0
1.365000 0.0 0.0
1.370000 0.0 0.0
1.375000 0.0 0.0
1.380000 0.0 0.0
1.385000 0.0 0.0
1.390000 0.0 0.0
1.395000 0.0 0.0
1.400000 0.0 0.0
1.405000 0.0 0.0
1.410000 0.0 0.0
1.415000 0.0 0.0
1.420000 0.0 0.0
1.425000 0.0 0.0
1.430000 0.0 0.0
1.435000 0.0 0.0
1.440000 0.0 0.0
1.445000 0.0 0.0
1.450000 0.0 0.0
1.455000 0.0 0.0
1.460000 0.0 0.0
1.465000 0.0 0.0
1.470000 0.0 0.0
1.475000 0.0 0.0
1.480000 0.0 0.0
1.485000 0.0 0.0
1.490000 0.0 0.0
1.495000 0.0 0.0
1.500000 0.0 0.0
1.505000 0.0 0.0
1.510000 0.0 0.0
1.515000 0.0 0.0
1.520000 0.0 0.0
1.525000 0.0 0.0
1.530000 0.0 0.0
1.535000 0.0 0.0
1.540000 0.0 0.0
1.545000 0.0 0.0
1.550000 0.0 0.0
1.555000 0.0 0.0
1.560000 0.0 0.0
1.565000 0.0 0.0
1.570000 0.0 0.0
1.575000 0.0 0.0
1.580000 0.0 0.0
1.585000 0.0 0.0
1.590000 0.0 0.0
1.595000 0.0 0.0
1.600000 0.0 0.0
1.605000 0.0 0.0
1.610000 0.0 0.0
1.615000 0.0 0.0
1.620000 0.0 0.0
1.625000 0.0 0.0
1.630000 0.0 0.0
1.635000 0.0 0.0
1.640000 0.0 0.0
1.645000 0.0 0.0
1.650000 0.0 0.0
1.655000 0.0 0.0
1.660000 0.0 0.0
1.665000 0.0 0.0
1.670000 0.0 0.0
1.675000 0.0 0.0
1.680000 0.0 0.0
1.685000 0.0 0.0
1.690000 0.0 0.0
1.695000 0.0 0.0
1.700000 0.0 0.0
1.705000 0.0 0.0
1.710000 0.0 0.0
1.715000 0.0 0.0
1.720000 0.0 0.0
1.725000 0.0 0.0
1.730000 0.0 0.0
1.735000 0.0 0.0
1.740000 0.0 0.0
1.745000 0.0 0.0
1.750000 0.0 0.0
1.755000 0.0 0.0
1.760000 0.0 0.0
1.765000 0.0 0.0
1.770000 0.0 0.0
1.775000 0.0 0.0
1.780000 0.0 0.0
1.785000 0.0 0.0
1.790000 0.0 0.0
1.795000 0.0 0.0
1.800000 0.0 0.0
1.805000 0.0 0.0
1.810000 0.0 0.0
1.815000 0.0 0.0
1.820000 0.0 0.0
1.825000 0.0 0.0
1.830000 0.0 0.0
1.835000 0.0 0.0
1.840000 0.0 0.0
1.845000 0.0 0.0
1.850000 0.0 0.0
1.855000 0.0 0.0
1.860000 0.0 0.0
1.865000 0.0 0.0
1.870000 0.0 0.0
1.875000 0.0 0.0
1.880000 0.0 0.0
1.885000 0.0 0.0
1.890000 0.0 0.0
1.895000 0.0 0.0
1.900000 0.0 0.0
1.905000 0.0 0.0
1.910000 0.0 0.0
1.915000 0.0 0.0
1.920000 0.0 0.0
1.925000 0.0 0.0
1.930000 0.0 0.0
1.935000 0.0 0.0
1.940000 0.0 0.0
1.945000 0.0 0.0
1.950000 0.0 0.0
1.955000 0.0 0.0
1.960000 0.0 0.0
1.965000 0.0 0.0
1.970000 0.0 0.0
1.975000 0.0 0.0
1.980000 0.0 0.0
1.985000 0.0 0.0
1.990000 0.0 0.0
1.995000 0.0 0.0
2.000000 0.0 0.0
2.005000 0.0 0.0
2.010000 0.0 0.0
2.015000 0.0 0.0
2.020000 0.0 0.0
2.025000 0.0 0.0
2.030000 0.0 0.0
2.035000 0.0 0.0
2.040000 0.0 0.0
2.045000 0.0 0.0
2.050000 0.0 0.0
2.055000 0.0 0.0
2.060000 0.0 0.0
2.065000 0.0 0.0
2.070000 0.0 0.0
2.075000 0.0 0.0
2.080000 0.0 0.0
2.085000 0.0 0.0
2.090000 0.0 0.0
2.095000 0.0 0.0
2.100000 0.0 0.0
2.105000 0.0 0.0
2.110000 0.0 0.0
2.115000 0.0 0.0
2.120000 0.0 0.0
2.125000 0.0 0.0
2.130000 0.0 0.0
2.135000 0.0 0.0
2.140000 0.0 0.0
2.145000 0.0 0.0
2.150000 0.0 0.0
2.155000 0.0 0.0
2.160000 0.0 0.0
2.165000 0.0 0.0
2.170000 0.0 0.0
2.175000 0.0 0.0
2.180000 0.0 0.0
2.185000 0.0 0.0
2.190000 0.0 0.0
2.195000 0.0 0.0
2.200000 0.0 0.0
2.205000 0.0 0.0
2.210000 0.0 0.0
2.215000 0.0 0.0
2.220000 0.0 0.0
2.225000 0.0 0.0
2.230000 0.0 0.0
2.235000 0.0 0.0
2.240000 0.0 0.0
2.245000 0.0 0.0
2.250000 0.0 0.0
2.255000 0.0 0.0
2.260000 0.0 0.0
2.265000 0.0 0.0
2.270000 0.0 0.0
2.275000 0.0 0.0
2.280000 0.0 0.0
2.285000 0.0 0.0
2.290000 0.0 0.0
2.295000 0.0 0.0
2.300000 0.0 0.0
2.305000 0.0 0.0
2.310000 0.0 0.0
2.315000 0.0 0.0
2.320000 0.0 0.0
2.325000 0.0 0.0
2.330000 0.0 0.0
2.335000 0.0 0.0
2.340000 0.0 0.0
2.345000 0.0 0.0
2.350000 0.0 0.0
2.355000 0.0 0.0
2.360000 0.0 0.0
2.365000 0.0 0.0
2.370000 0.0 0.0
2.375000 0.0 0.0
2.380000 0.0 0.0
2.385000 0.0 0.0
2.390000 0.0 0.0
2.395000 0.0 0.0
2.400000 0.0 0.0
2.405000 0.0 0.0
2.410000 0.0 0.0
2.415000 0.0 0.0
2.420000 0.0 0.0
2.425000 0.0 0.0
2.430000 0.0 0.0
2.435000 0.0 0.0
2.440000 0.0 0.0
2.445000 0.0 0.0
2.450000 0.0 0.0
2.455000 0.0 0.0
2.460000 0.0 0.0
2.465000 0.0 0.0
2.470000 0.0 0.0
2.475000 0.0 0.0
2.480000 0.0 0.0
2.485000 0.0 0.0
2.490000 0.0 0.0
2.495000 0.0 0.0
2.500000 0.0 0.0
2.505000 0.0 0.0
2.510000 0.0 0.0
2.515000 0.0 0.0
2.520000 0.0 0.0
2.525000 0.0 0.0
2.530000 0.0 0.0
2.535000 0.0 0.0
2.540000 0.0 0.0
2.545000 0.0 0.0
2.550000 0.0 0.0
2.555000 0.0 0.0
2.560000 0.0 0.0
2.565000 0.0 0.0
2.570000 0.0 0.0
2.575000 0.0 0.0
2.580000 0.0 0.0
2.585000 0.0 0.0
2.590000 0.0 0.0
2.595000 0.0 0.0
2.600000 0.0 0.0
2.605000 0.0 0.0
2.610000 0.0 0.0
2.615000 0.0 0.0
2.620000 0.0 0.0
2.625000 0.0 0.0
2.630000 0.0 0.0
2.635000 0.0 0.0
2.640000 0.0 0.0
2.645000 0.0 0.0
2.650000 0.0 0.0
2.655000 0.0 0.0
2.660000 0.0 0.0
2.665000 0.0 0.0
2.670000 0.0 0.0
2.675000 0.0 0.0
2.680000 0.0 0.0
2.685000 0.0 0.0
2.690000 0.0 0.0
2.695000 0.0 0.0
2.700000 0.0 0.0
2.705000 0.0 0.0
2.710000 0.0 0.0
2.715000 0.0 0.0
2.720000 0.0 0.0
2.725000 0.0 0.0
2.730000 0.0 0.0
2.735000 0.0 0.0
2.740000 0.0 0.0
2.745000 0.0 0.0
2.750000 0.0 0.0
2.755000 0.0 0.0
2.760000 0.0 0.0
2.765000 0.0 0.0
2.770000 0.0 0.0
2.775000 0.0 0.0
2.780000 0.0 0.0
2.785000 0.0 0.0
2.790000 0.0 0.0
2.795000 0.0 0.0
2.800000 0.0 0.0
2.805000 0.0 0.0
2.810000 0.0 0.0
2.815000 0.0 0.0
2.820000 0.0 0.0
2.825000 0.0 0.0
2.830000 0.0 0.0
2.835000 0.0 0.0
2.840000 0.0 0.0
2.845000 0.0 0.0
2.850000 0.0 0.0
2.855000 0.0 0.0
2.860000 0.0 0.0
[...]
      <PointData Scalars="Temperature">
        <DataArray type="Float32" Name="Temperature" format="ascii">
308.150000
307.200602
306.251402
305.302596
304.354382
303.406956
302.460513
301.515250
300.571362
299.629042
298.688482
297.749876
296.813414
295.879284
294.947675
294.018774
293.092764
292.169829
291.250149
290.333904
289.421271
288.512422
287.607532
286.706768
285.810299
284.918287
284.030894
283.148279
282.270597
281.397998
280.530634
279.668648
278.812182
277.961377
277.116368
276.277288
275.444280
274.618248
273.834705
273.338386
273.105733
272.965554
272.862660
272.778730
272.705945
272.640333
272.579626
272.522421
272.467792
272.415107
272.363915
272.313887
272.264779
272.216406
272.168626
272.121330
272.074434
272.027869
271.981585
271.935539
271.889699
271.844039
271.798538
271.753181
271.707953
271.662845
271.617850
271.572961
271.528173
271.483482
271.438887
271.394384
271.349973
271.305652
271.261421
271.217280
271.173228
271.129266
271.085395
271.041613
270.997924
270.954325
270.910820
270.867407
270.824089
270.780865
270.737737
270.694706
270.651772
270.608936
270.566200
270.523563
270.481028
270.438594
270.396263
270.354036
270.311913
270.269895
270.227984
270.186180
270.144484
270.102897
270.061419
270.020052
269.978796
269.937652
269.896621
269.855704
269.814902
269.774214
269.733643
269.693189
269.652853
269.612635
269.572536
269.532556
269.492698
269.452961
269.413346
269.373854
269.334485
269.295240
269.256120
269.217126
269.178257
269.139516
269.100902
269.062416
269.024059
268.985830
268.947732
268.909765
268.871928
268.834223
268.796651
268.759211
268.721904
268.684732
268.647693
268.610790
268.574022
268.537390
268.500895
268.464536
268.428315
268.392232
268.356287
268.320481
268.284814
268.249287
268.213899
268.178652
268.143547
268.108582
268.073759
268.039078
268.004539
267.970143
267.935890
267.901781
267.867815
267.833994
267.800317
267.766784
267.733396
267.700154
267.667057
267.634106
267.601301
267.568642
267.536130
267.503765
267.471546
267.439475
267.407551
267.375774
267.344145
267.312665
267.281332
267.250147
267.219111
267.188223
267.157484
267.126894
267.096453
267.066160
267.036017
267.006022
266.976177
266.946482
266.916935
266.887538
266.858291
266.829192
266.800244
266.771445
266.742795
266.714295
266.685945
266.657743
266.629692
266.601790
266.574037
266.546434
266.518980
266.491675
266.464519
266.437513
266.410655
266.383947
266.357387
266.330976
266.304713
266.278599
266.252633
266.226816
266.201146
266.175624
266.150250
266.125024
266.099945
266.075013
266.050228
266.025590
266.001099
265.976754
265.952555
265.928502
265.904595
265.880833
265.857217
265.833746
265.810419
265.787237
265.764199
265.741305
265.718554
265.695947
265.673483
265.651162
265.628983
265.606947
265.585052
265.563299
265.541687
265.520216
265.498885
265.477695
265.456644
265.435733
265.414961
265.394328
265.373833
265.353476
265.333256
265.313174
265.293229
265.273420
265.253747
265.234210
265.214808
265.195541
265.176409
265.157410
265.138545
265.119813
265.101213
265.082746
265.064411
265.046207
265.028134
265.010191
264.992379
264.974696
264.957142
264.939716
264.922419
264.905249
264.888206
264.871291
264.854501
264.837837
264.821298
264.804884
264.788594
264.772427
264.756384
264.740464
264.724666
264.708989
264.693434
264.677999
264.662684
264.647489
264.632413
264.617455
264.602616
264.587893
264.573288
264.558799
264.544426
264.530168
264.516025
264.501996
264.488081
264.474279
264.460590
264.447012
264.433546
264.420191
264.406946
264.393811
264.380785
264.367868
264.355059
264.342357
264.329763
264.317275
264.304892
264.292615
264.280443
264.268375
264.256410
264.244548
264.232789
264.221132
264.209575
264.198120
264.186765
264.175509
264.164352
264.153294
264.142333
264.131470
264.120704
264.110033
264.099458
264.088978
264.078593
264.068301
264.058102
264.047996
264.037983
264.028060
264.018229
264.008488
263.998837
263.989275
263.979802
263.970417
263.961119
263.951908
263.942784
263.933745
263.924792
263.915923
263.907139
263.898438
263.889820
263.881284
263.872830
263.864458
263.856166
263.847954
263.839822
263.831769
263.823794
263.815898
263.808079
263.800336
263.792670
263.785080
263.777565
263.770124
263.762757
263.755465
263.748245
263.741097
263.734022
263.727017
263.720084
263.713221
263.706428
263.699704
263.693048
263.686461
263.679942
263.673490
263.667104
263.660784
263.654530
263.648341
263.642217
263.636156
263.630160
263.624226
263.618354
263.612545
263.606797
263.601110
263.595484
263.589918
263.584411
263.578963
263.573574
263.568242
263.562969
263.557752
263.552592
263.547488
263.542440
263.537447
263.532508
263.527624
263.522793
263.518016
263.513291
263.508619
263.503999
263.499430
263.494912
263.490445
263.486028
263.481660
263.477342
263.473072
263.468851
263.464678
263.460552
263.456473
263.452440
263.448454
263.444513
263.440618
263.436768
263.432962
263.429200
263.425482
263.421807
263.418175
263.414585
263.411037
263.407531
263.404066
263.400642
263.397258
263.393914
263.390610
263.387346
263.384120
263.380932
263.377783
263.374672
263.371597
263.368560
263.365560
263.362596
263.359667
263.356774
263.353917
263.351094
263.348306
263.345552
263.342831
263.340144
263.337491
263.334870
263.332281
263.329724
263.327200
263.324706
263.322244
263.319813
263.317412
263.315041
263.312700
263.310388
263.308106
263.305852
263.303627
263.301430
263.299262
263.297121
263.295007
263.292920
263.290860
263.288827
263.286820
263.284839
263.282883
263.280953
263.279047
263.277167
263.275311
263.273479
263.271671
263.269887
263.268126
263.266389
263.264674
263.262982
263.261313
263.259666
263.258040
263.256436
263.254854
263.253292
263.251752
263.250232
263.248733
263.247254
263.245794
263.244355
263.242935
263.241534
263.240152
263.238789
263.237445
263.236119
263.234811
263.233522
263.232249
263.230995
263.229757
263.228537
263.227334
263.226147
263.224977
263.223823
263.222685
263.221563
263.220457
263.219366
263.218291
263.217231
263.216185
263.215155
263.214139
263.213137
263.212150
263.211176
263.210217
263.209271
263.208339
263.207420
263.206514
263.205621
263.204741
263.203874
263.203019
263.202177
263.201347
263.200528
263.199722
263.198928
263.198145
263.197373
263.196613
263.195864
263.195126
263.194399
263.193683
263.192977
263.192281
263.191596
263.190921
263.190256
263.189601
263.188956
263.188320
263.187694
263.187077
263.186470
263.185871
263.185282
263.184702
263.184130
263.183567
263.183012
263.182466
263.181928
263.181399
263.180877
263.180364
263.179858
263.179360
263.178870
263.178387
263.177911
263.177443
263.176983
263.176529
263.176082
263.175642
263.175210
263.174783
263.174364
263.173951
263.173544
263.173144
263.172750
263.172363
263.171981
263.171606
263.171236
263.170872
263.170514
263.170162
263.169815
263.169474
263.169138
263.168808
263.168482
263.168162
263.167848
263.167538
263.167233
263.166933
263.166638
263.166348
263.166062
263.165781
263.165504
263.165232
263.164965
263.164702
263.164443
263.164188
263.163938
263.163691
263.163449
263.163210
263.162976
263.162745
263.162518
263.162295
263.162076
263.161860
263.161648
263.161439
263.161234
263.161032
263.160834
263.160638
263.160447
263.160258
263.160072
263.159890
263.159711
263.159534
263.159361
263.159191
263.159023
263.158858
263.158696
263.158537
263.158380
263.158227
263.158075
263.157927
263.157781
263.157637
263.157496
263.157357
263.157220
263.157086
263.156955
263.156825
263.156698
263.156573
263.156450
263.156329
263.156210
263.156093
263.155978
263.155866
263.155755
263.155646
263.155539
263.155434
263.155331
263.155229
263.155129
263.155031
263.154935
263.154840
263.154747
263.154656
263.154566
263.154478
263.154391
263.154306
263.154222
263.154140
263.154059
263.153980
263.153902
263.153825
263.153750
263.153676
263.153603
263.153532
263.153462
263.153393
263.153325
263.153259
263.153193
263.153129
263.153066
263.153004
263.152943
263.152883
263.152824
263.152766
263.152709
263.152653
263.152599
263.152545
263.152492
263.152439
263.152388
263.152338
263.152288
263.152240
263.152192
263.152145
263.152099
263.152053
263.152009
263.151965
263.151922
263.151879
263.151837
263.151796
263.151756
263.151716
263.151677
263.151639
263.151601
263.151564
263.151527
263.151491
263.151455
263.151421
263.151386
263.151352
263.151319
263.151286
263.151254
263.151222
263.151191
263.151160
263.151129
263.151099
263.151070
263.151041
263.151012
263.150983
263.150955
263.150928
263.150901
263.150874
263.150847
263.150821
263.150795
263.150769
263.150744
263.150719
263.150694
263.150670
263.150646
263.150622
263.150598
263.150575
263.150552
263.150529
263.150506
263.150483
263.150461
263.150439
263.150417
263.150395
263.150373
263.150352
263.150330
263.150309
263.150288
263.150267
263.150246
263.150225
263.150204
263.150184
263.150163
263.150142
263.150122
263.150102
263.150081
263.150061
263.150041
263.150020
263.150000
        </DataArray>
      </PointData>
      <CellData>
      </CellData>
    </Piece>
  </UnstructuredGrid>
</VTKFile>
