<?xml version="1.0"?>
<VTKFile type="UnstructuredGrid" version="0.1" byte_order="LittleEndian">
  <UnstructuredGrid>
    <Piece NumberOfPoints="801" NumberOfCells="800">
      <Points>
        <DataArray type="Float32" NumberOfComponents="3" format="ascii">
0.000000 0.0 0.0
0.005000 0.0 0.0
0.010000 0.0 0.0
0.015000 0.0 0.0
0.020000 0.0 0.0
0.025000 0.0 0.0
0.030000 0.0 0.0
0.035000 0.0 0.0
0.040000 0.0 0.0
0.045000 0.0 0.0
0.050000 0.0 0.0
0.055000 0.0 0.0
0.060000 0.0 0.0
0.065000 0.0 0.0
0.070000 0.0 0.0
0.075000 0.0 0.0
0.080000 0.0 0.0
0.085000 0.0 0.0
0.090000 0.0 0.0
0.095000 0.0 0.0
0.100000 0.0 0.0
0.105000 0.0 0.0
0.110000 0.0 0.0
0.115000 0.0 0.0
0.120000 0.0 0.0
0.125000 0.0 0.0
0.130000 0.0 0.0
0.135000 0.0 0.0
0.140000 0.0 0.0
0.145000 0.0 0.0
0.150000 0.0 0.0
0.155000 0.0 0.0
0.160000 0.0 0.0
0.165000 0.0 0.0
0.170000 0.0 0.0
0.175000 0.0 0.0
0.180000 0.0 0.0
0.185000 0.0 0.0
0.190000 0.0 0.0
0.195000 0.0 0.0
0.200000 0.0 0.0
0.205000 0.0 0.0
0.210000 0.0 0.0
0.215000 0.0 0.0
0.220000 0.0 0.0
0.225000 0.0 0.0
0.230000 0.0 0.0
0.235000 0.0 0.0
0.240000 0.0 0.0
0.245000 0.0 0.0
0.250000 0.0 0.0
0.255000 0.0 0.0
0.260000 0.0 0.0
0.265000 0.0 0.0
0.270000 0.0 0.0
0.275000 0.0 0.0
0.280000 0.0 0.0
0.285000 0.0 0.0
0.290000 0.0 0.0
0.295000 0.0 0.0
0.300000 0.0 0.0
0.305000 0.0 0.0
0.310000 0.0 0.0
0.315000 0.0 0.0
0.320000 0.0 0.0
0.325000 0.0 0.0
0.330000 0.0 0.0
0.335000 0.0 0.0
0.340000 0.0 0.0
0.345000 0.0 0.0
0.350000 0.0 0.0
0.355000 0.0 0.0
0.360000 0.0 0.0
0.365000 0.0 0.0
0.370000 0.0 0.0
0.375000 0.0 0.0
0.380000 0.0 0.0
0.385000 0.0 0.0
0.390000 0.0 0.0
0.395000 0.0 0.0
0.400000 0.0 0.0
0.405000 0.0 0.0
0.410000 0.0 0.0
0.415000 0.0 0.0
0.420000 0.0 0.0
0.425000 0.0 0.0
0.430000 0.0 0.0
0.435000 0.0 0.0
0.440000 0.0 0.0
0.445000 0.0 0.0
0.450000 0.0 0.0
0.455000 0.0 0.0
0.460000 0.0 0.0
0.465000 0.0 0.0
0.470000 0.0 0.0
0.475000 0.0 0.0
0.480000 0.0 0.0
0.485000 0.0 0.0
0.490000 0.0 0.0
0.495000 0.0 0.0
0.500000 0.0 0.0
0.505000 0.0 0.0
0.510000 0.0 0.0
0.515000 0.0 0.0
0.520000 0.0 0.0
0.525000 0.0 0.0
0.530000 0.0 0.0
0.535000 0.0 0.0
0.540000 0.0 0.0
0.545000 0.0 0.0
0.550000 0.0 0.0
0.555000 0.0 0.0
0.560000 0.0 0.0
0.565000 0.0 0.0
0.570000 0.0 0.0
0.575000 0.0 0.0
0.580000 0.0 0.0
0.585000 0.0 0.0
0.590000 0.0 0.0
0.595000 0.0 0.0
0.600000 0.0 0.0
0.605000 0.0 0.0
0.610000 0.0 0.0
0.615000 0.0 0.0
0.620000 0.0 0.0
0.625000 0.0 0.0
0.630000 0.0 0.0
0.635000 0.0 0.0
0.640000 0.0 0.0
0.645000 0.0 0.0
0.650000 0.0 0.0
0.655000 0.0 0.0
0.660000 0.0 0.0
0.665000 0.0 0.0
0.670000 0.0 0.0
0.675000 0.0 0.0
0.680000 0.0 0.0
0.685000 0.0 0.0
0.690000 0.0 0.0
0.695000 0.0 0.0
0.700000 0.0 0.0
0.705000 0.0 0.0
0.710000 0.0 0.0
0.715000 0.0 0.0
0.720000 0.0 0.0
0.725000 0.0 0.0
0.730000 0.0 0.0
0.735000 0.0 0.0
0.740000 0.0 0.0
0.745000 0.0 0.0
0.750000 0.0 0.0
0.755000 0.0 0.0
0.760000 0.0 0.0
0.765000 0.0 0.0
0.770000 0.0 0.0
0.775000 0.0 0.0
0.780000 0.0 0.0
0.785000 0.0 0.0
0.790000 0.0 0.0
0.795000 0.0 0.0
0.800000 0.0 0.0
0.805000 0.0 0.0
0.810000 0.0 0.0
0.815000 0.0 0.0
0.820000 0.0 0.0
0.825000 0.0 0.0
0.830000 0.0 0.0
0.835000 0.0 0.0
0.840000 0.0 0.0
0.845000 0.0 0.0
0.850000 0.0 0.0
0.855000 0.0 0.0
0.860000 0.0 0.0
0.865000 0.0 0.0
0.870000 0.0 0.0
0.875000 0.0 0.0
0.880000 0.0 0.0
0.885000 0.0 0.0
0.890000 0.0 0.0
0.895000 0.0 0.0
0.900000 0.0 0.0
0.905000 0.0 0.0
0.910000 0.0 0.0
0.915000 0.0 0.0
0.920000 0.0 0.0
0.925000 0.0 0.0
0.930000 0.0 0.0
0.935000 0.0 0.0
0.940000 0.0 0.0
0.945000 0.0 0.0
0.950000 0.0 0.0
0.955000 0.0 0.0
0.960000 0.0 0.0
0.965000 0.0 0.0
0.970000 0.0 0.0
0.975000 0.0 0.0
0.980000 0.0 0.0
0.985000 0.0 0.0
0.990000 0.0 0.0
0.995000 0.0 0.0
1.000000 0.0 0.0
1.005000 0.0 0.0
1.010000 0.0 0.0
1.015000 0.0 0.0
1.020000 0.0 0.0
1.025000 0.0 0.0
1.030000 0.0 0.0
1.035000 0.0 0.0
1.040000 0.0 0.0
1.045000 0.0 0.0
1.050000 0.0 0.0
1.055000 0.0 0.0
1.060000 0.0 0.0
1.065000 0.0 0.0
1.070000 0.0 0.0
1.075000 0.0 0.0
1.080000 0.0 0.0
1.085000 0.0 0.0
1.090000 0.0 0.0
1.095000 0.0 0.0
1.100000 0.0 0.0
1.105000 0.0 0.0
1.110000 0.0 0.0
1.115000 0.0 0.0
1.120000 0.0 0.0
1.125000 0.0 0.0
1.130000 0.0 0.0
1.135000 0.0 0.0
1.140000 0.0 0.0
1.145000 0.0 0.0
1.150000 0.0 0.0
1.155000 0.0 0.0
1.160000 0.0 0.0
1.165000 0.0 0.0
1.170000 0.0 0.0
1.175000 0.0 0.0
1.180000 0.0 0.0
1.185000 0.0 0.0
1.190000 0.0 0.0
1.195000 0.0 0.0
1.200000 0.0 0.0
1.205000 0.0 0.0
1.210000 0.0 0.0
1.215000 0.0 0.0
1.220000 0.0 0.0
1.225000 0.0 0.0
1.230000 0.0 0.0
1.235000 0.0 0.0
1.240000 0.0 0.0
1.245000 0.0 0.0
1.250000 0.0 0.0
1.255000 0.0 0.0
1.260000 0.0 0.0
1.265000 0.0 0.0
1.270000 0.0 0.0
1.275000 0.0 0.0
1.280000 0.0 0.0
1.285000 0.0 0.0
1.290000 0.0 0.0
1.295000 0.0 0.0
1.300000 0.0 0.0
1.305000 0.0 0.0
1.310000 0.0 0.0
1.315000 0.0 0.0
1.320000 0.0 0.0
1.325000 0.0 0.0
1.330000 0.0 0.0
1.335000 0.0 0.0
1.340000 0.0 0.0
1.345000 0.0 0.0
1.350000 0.0 0.0
1.355000 0.0 0.0
1.360000 0.0 0.0
1.365000 0.0 0.0
1.370000 0.0 0.0
1.375000 0.0 0.0
1.380000 0.0 0.0
1.385000 0.0 0.0
1.390000 0.0 0.0
1.395000 0.0 0.0
1.400000 0.0 0.0
1.405000 0.0 0.0
1.410000 0.0 0.0
1.415000 0.0 0.0
1.420000 0.0 0.0
1.425000 0.0 0.0
1.430000 0.0 0.0
1.435000 0.0 0.0
1.440000 0.0 0.0
1.445000 0.0 0.0
1.450000 0.0 0.0
1.455000 0.0 0.0
1.460000 0.0 0.0
1.465000 0.0 0.0
1.470000 0.0 0.0
1.475000 0.0 0.0
1.480000 0.0 0.0
1.485000 0.0 0.0
1.490000 0.0 0.0
1.495000 0.0 0.0
1.500000 0.0 0.0
1.505000 0.0 0.0
1.510000 0.0 0.0
1.515000 0.0 0.0
1.520000 0.0 0.0
1.525000 0.0 0.0
1.530000 0.0 0.0
1.535000 0.0 0.0
1.540000 0.0 0.0
1.545000 0.0 0.0
1.550000 0.0 0.0
1.555000 0.0 0.0
1.560000 0.0 0.0
1.565000 0.0 0.0
1.570000 0.0 0.0
1.575000 0.0 0.0
1.580000 0.0 0.0
1.585000 0.0 0.0
1.590000 0.0 0.0
1.595000 0.0 0.0
1.600000 0.0 0.0
1.605000 0.0 0.0
1.610000 0.0 0.0
1.615000 0.0 0.0
1.620000 0.0 0.0
1.625000 0.0 0.0
1.630000 0.0 0.0
1.635000 0.0 0.0
1.640000 0.0 0.0
1.645000 0.0 0.0
1.650000 0.0 0.0
1.655000 0.0 0.0
1.660000 0.0 0.0
1.665000 0.0 0.0
1.670000 0.0 0.0
1.675000 0.0 0.0
1.680000 0.0 0.0
1.685000 0.0 0.0
1.690000 0.0 0.0
1.695000 0.0 0.0
1.700000 0.0 0.0
1.705000 0.0 0.0
1.710000 0.0 0.0
1.715000 0.0 0.0
1.720000 0.0 0.0
1.725000 0.0 0.0
1.730000 0.0 0.0
1.735000 0.0 0.0
1.740000 0.0 0.0
1.745000 0.0 0.0
1.750000 0.0 0.0
1.755000 0.0 0.0
1.760000 0.0 0.0
1.765000 0.0 0.0
1.770000 0.0 0.0
1.775000 0.0 0.0
1.780000 0.0 0.0
1.785000 0.0 0.0
1.790000 0.0 0.0
1.795000 0.0 0.0
1.800000 0.0 0.0
1.805000 0.0 0.0
1.810000 0.0 0.0
1.815000 0.0 0.0
1.820000 0.0 0.0
1.825000 0.0 0.0
1.830000 0.0 0.0
1.835000 0.0 0.0
1.840000 0.0 0.0
1.845000 0.0 0.0
1.850000 0.0 0.0
1.855000 0.0 0.0
1.860000 0.0 0.0
1.865000 0.0 0.0
1.870000 0.0 0.0
1.875000 0.0 0.0
1.880000 0.0 0.0
1.885000 0.0 0.0
1.890000 0.0 0.0
1.895000 0.0 0.0
1.900000 0.0 0.0
1.905000 0.0 0.0
1.910000 0.0 0.0
1.915000 0.0 0.0
1.920000 0.0 0.0
1.925000 0.0 0.0
1.930000 0.0 0.0
1.935000 0.0 0.0
1.940000 0.0 0.0
1.945000 0.0 0.0
1.950000 0.0 0.0
1.955000 0.0 0.0
1.960000 0.0 0.0
1.965000 0.0 0.0
1.970000 0.0 0.0
1.975000 0.0 0.0
1.980000 0.0 0.0
1.985000 0.0 0.0
1.990000 0.0 0.0
1.995000 0.0 0.0
2.000000 0.0 0.0
2.005000 0.0 0.0
2.010000 0.0 0.0
2.015000 0.0 0.0
2.020000 0.0 0.0
2.025000 0.0 0.0
2.030000 0.0 0.0
2.035000 0.0 0.0
2.040000 0.0 0.0
2.045000 0.0 0.0
2.050000 0.0 0.0
2.055000 0.0 0.0
2.060000 0.0 0.0
2.065000 0.0 0.0
2.070000 0.0 0.0
2.075000 0.0 0.0
2.080000 0.0 0.0
2.085000 0.0 0.0
2.090000 0.0 0.0
2.095000 0.0 0.0
2.100000 0.0 0.0
2.105000 0.0 0.0
2.110000 0.0 0.0
2.115000 0.0 0.0
2.120000 0.0 0.0
2.125000 0.0 0.0
2.130000 0.0 0.0
2.135000 0.0 0.0
2.140000 0.0 0.0
2.145000 0.0 0.0
2.150000 0.0 0.0
2.155000 0.0 0.0
2.160000 0.0 0.0
2.165000 0.0 0.0
2.170000 0.0 0.0
2.175000 0.0 0.0
2.180000 0.0 0.0
2.185000 0.0 0.0
2.190000 0.0 0.0
2.195000 0.0 0.0
2.200000 0.0 0.0
2.205000 0.0 0.0
2.210000 0.0 0.0
2.215000 0.0 0.0
2.220000 0.0 0.0
2.225000 0.0 0.0
2.230000 0.0 0.0
2.235000 0.0 0.0
2.240000 0.0 0.0
2.245000 0.0 0.0
2.250000 0.0 0.0
2.255000 0.0 0.0
2.260000 0.0 0.0
2.265000 0.0 0.0
2.270000 0.0 0.0
2.275000 0.0 0.0
2.280000 0.0 0.0
2.285000 0.0 0.0
2.290000 0.0 0.0
2.295000 0.0 0.0
2.300000 0.0 0.0
2.305000 0.0 0.0
2.310000 0.0 0.0
2.315000 0.0 0.0
2.320000 0.0 0.0
2.325000 0.0 0.0
2.330000 0.0 0.0
2.335000 0.0 0.0
2.340000 0.0 0.0
2.345000 0.0 0.0
2.350000 0.0 0.0
2.355000 0.0 0.0
2.360000 0.0 0.0
2.365000 0.0 0.0
2.370000 0.0 0.0
2.375000 0.0 0.0
2.380000 0.0 0.0
2.385000 0.0 0.0
2.390000 0.0 0.0
2.395000 0.0 0.0
2.400000 0.0 0.0
2.405000 0.0 0.0
2.410000 0.0 0.0
2.415000 0.0 0.0
2.420000 0.0 0.0
2.425000 0.0 0.0
2.430000 0.0 0.0
2.435000 0.0 0.0
2.440000 0.0 0.0
2.445000 0.0 0.0
2.450000 0.0 0.0
2.455000 0.0 0.0
2.460000 0.0 0.0
2.465000 0.0 0.0
2.470000 0.0 0.0
2.475000 0.0 0.0
2.480000 0.0 0.0
2.485000 0.0 0.0
2.490000 0.0 0.0
2.495000 0.0 0.0
2.500000 0.0 0.0
2.505000 0.0 0.0
2.510000 0.0 0.0
2.515000 0.0 0.0
2.520000 0.0 0.0
2.525000 0.0 0.0
2.530000 0.0 0.0
2.535000 0.0 0.0
2.540000 0.0 0.0
2.545000 0.0 0.0
2.550000 0.0 0.0
2.555000 0.0 0.0
2.560000 0.0 0.0
2.565000 0.0 0.0
2.570000 0.0 0.0
2.575000 0.0 0.0
2.580000 0.0 0.0
2.585000 0.0 0.0
2.590000 0.0 0.0
2.595000 0.0 0.0
2.600000 0.0 0.0
2.605000 0.0 0.0
2.610000 0.0 0.0
2.615000 0.0 0.0
2.620000 0.0 0.0
2.625000 0.0 0.0
2.630000 0.0 0.0
2.635000 0.0 0.0
2.640000 0.0 0.0
2.645000 0.0 0.0
2.650000 0.0 0.0
2.655000 0.0 0.0
2.660000 0.0 0.0
2.665000 0.0 0.0
2.670000 0.0 0.0
2.675000 0.0 0.0
2.680000 0.0 0.0
2.685000 0.0 0.0
2.690000 0.0 0.0
2.695000 0.0 0.0
2.700000 0.0 0.0
2.705000 0.0 0.0
2.710000 0.0 0.0
2.715000 0.0 0.0
2.720000 0.0 0.0
2.725000 0.0 0.0
2.730000 0.0 0.0
2.735000 0.0 0.0
2.740000 0.0 0.0
2.745000 0.0 0.0
2.750000 0.0 0.0
2.755000 0.0 0.0
2.760000 0.0 0.0
2.765000 0.0 0.0
2.770000 0.0 0.0
2.775000 0.0 0.0
2.780000 0.0 0.0
2.785000 0.0 0.0
2.790000 0.0 0.0
2.795000 0.0 0.0
2.800000 0.0 0.0
2.805000 0.0 0.0
2.810000 0.0 0.0
2.815000 0.0 0.0
2.820000 0.0 0.0
2.825000 0.0 0.0
2.830000 0.0 0.0
2.835000 0.0 0.0
2.840000 0.0 0.0
2.845000 0.0 0.0
2.850000 0.0 0.0
2.855000 0.0 0.0
2.860000 0.0 0.0
[...]
      <PointData Scalars="Temperature">
        <DataArray type="Float32" Name="Temperature" format="ascii">
308.150000
307.247746
306.345661
305.443916
304.542681
303.642123
302.742413
301.843718
300.946207
300.050046
299.155402
298.262441
297.371327
296.482223
295.595293
294.710698
293.828597
292.949149
292.072512
291.198839
290.328287
289.461006
288.597146
287.736857
286.880283
286.027570
285.178858
284.334288
283.493997
282.658119
281.826787
281.000129
280.178274
279.361346
278.549466
277.742754
276.941326
276.145297
275.354798
274.570863
273.828108
273.348713
273.118622
272.979712
272.878104
272.795572
272.724292
272.660282
272.601261
272.545816
272.493017
272.442221
272.392973
272.344938
272.297866
272.251567
272.205895
272.160735
272.116000
272.071617
272.027532
271.983700
271.940085
271.896658
271.853396
271.810282
271.767301
271.724440
271.681691
271.639045
271.596497
271.554043
271.511679
271.469401
271.427208
271.385098
271.343071
271.301124
271.259259
271.217474
271.175770
271.134146
271.092603
271.051142
271.009763
270.968465
270.927251
270.886120
270.845074
270.804112
270.763235
270.722445
270.681742
270.641127
270.600600
270.560163
270.519815
270.479558
270.439393
270.399319
270.359339
270.319452
270.279660
270.239963
270.200362
270.160858
270.121451
270.082142
270.042931
270.003821
269.964810
269.925900
269.887092
269.848386
269.809783
269.771284
269.732888
269.694598
269.656413
269.618334
269.580363
269.542498
269.504742
269.467094
269.429555
269.392126
269.354808
269.317601
269.280505
269.243522
269.206651
269.169893
269.133250
269.096720
269.060306
269.024007
268.987823
268.951757
268.915807
268.879975
268.844260
268.808664
268.773187
268.737829
268.702591
268.667473
268.632476
268.597601
268.562846
268.528214
268.493704
268.459317
268.425053
268.390913
268.356896
268.323004
268.289237
268.255595
268.222078
268.188687
268.155423
268.122284
268.089273
268.056389
268.023632
267.991002
267.958501
267.926128
267.893884
267.861768
267.829782
267.797925
267.766198
267.734600
267.703133
267.671796
267.640590
267.609514
267.578570
267.547756
267.517074
267.486524
267.456105
267.425818
267.395663
267.365641
267.335751
267.305993
267.276368
267.246876
267.217517
267.188291
267.159198
267.130238
267.101411
267.072718
267.044159
267.015733
266.987440
266.959282
266.931257
266.903366
266.875608
266.847985
266.820495
266.793139
266.765918
266.738830
266.711876
266.685056
266.658370
266.631817
266.605399
266.579114
266.552963
266.526946
266.501063
266.475313
266.449696
266.424213
266.398864
266.373648
266.348565
266.323615
266.298798
266.274114
266.249563
266.225145
266.200859
266.176705
266.152684
266.128795
266.105038
266.081413
266.057919
266.034557
266.011327
265.988227
265.965259
265.942421
265.919714
265.897137
265.874691
265.852374
265.830188
265.808130
265.786203
265.764404
265.742734
265.721193
265.699780
265.678496
265.657339
265.636310
265.615408
265.594633
265.573986
265.553465
265.533070
265.512801
265.492658
265.472640
265.452747
265.432979
265.413336
265.393817
265.374422
265.355150
265.336001
265.316976
265.298073
265.279292
265.260634
265.242096
265.223680
265.205385
265.187211
265.169156
265.151222
265.133407
265.115711
265.098133
265.080674
265.063333
265.046110
265.029004
265.012014
264.995141
264.978384
264.961743
264.945217
264.928806
264.912509
264.896326
264.880257
264.864301
264.848458
264.832727
264.817108
264.801601
264.786204
264.770919
264.755744
264.740678
264.725722
264.710875
264.696136
264.681506
264.666983
264.652567
264.638259
264.624056
264.609959
264.595968
264.582081
264.568299
264.554622
264.541047
264.527576
264.514207
264.500941
264.487777
264.474713
264.461751
264.448888
264.436126
264.423463
264.410899
264.398433
264.386066
264.373796
264.361623
264.349546
264.337566
264.325681
264.313891
264.302196
264.290595
264.279088
264.267674
264.256352
264.245123
264.233986
264.222940
264.211984
264.201119
264.190344
264.179658
264.169061
264.158552
264.148131
264.137797
264.127551
264.117390
264.107316
264.097327
264.087423
264.077604
264.067868
264.058216
264.048647
264.039160
264.029756
264.020433
264.011191
264.002029
263.992948
263.983946
263.975023
263.966179
263.957414
263.948725
263.940114
263.931580
263.923122
263.914740
263.906432
263.898200
263.890042
263.881958
263.873947
263.866009
263.858143
263.850350
263.842627
263.834976
263.827395
263.819885
263.812444
263.805072
263.797768
263.790533
263.783365
263.776265
263.769231
263.762264
263.755363
263.748527
263.741756
263.735049
263.728406
263.721827
263.715311
263.708858
263.702467
263.696138
263.689870
263.683662
263.677516
263.671429
263.665402
263.659434
263.653524
263.647673
263.641879
263.636143
263.630464
263.624841
263.619274
263.613763
263.608307
263.602906
263.597560
263.592267
263.587027
263.581841
263.576708
263.571626
263.566597
263.561619
263.556692
263.551815
263.546989
263.542213
263.537486
263.532808
263.528178
263.523597
263.519064
263.514578
263.510139
263.505747
263.501401
263.497101
263.492846
263.488636
263.484472
263.480351
263.476275
263.472242
263.468252
263.464305
263.460401
263.456538
263.452718
263.448939
263.445201
263.441503
263.437846
263.434229
263.430651
263.427113
263.423614
263.420153
263.416730
263.413345
263.409998
263.406688
263.403415
263.400178
263.396978
263.393813
263.390684
263.387590
263.384531
263.381507
263.378517
263.375560
263.372638
263.369748
263.366892
263.364068
263.361277
263.358518
263.355790
263.353094
263.350429
263.347795
263.345191
263.342618
263.340074
263.337561
263.335076
263.332621
263.330195
263.327797
263.325427
263.323085
263.320771
263.318485
263.316226
263.313993
263.311787
263.309608
263.307454
263.305326
263.303224
263.301147
263.299096
263.297069
263.295066
263.293088
263.291134
263.289204
263.287297
263.285413
263.283553
263.281715
263.279900
263.278107
263.276337
263.274588
263.272861
263.271155
263.269471
263.267807
263.266164
263.264542
263.262940
263.261358
263.259796
263.258254
263.256731
263.255227
263.253742
263.252276
263.250829
263.249400
263.247990
263.246597
263.245222
263.243865
263.242525
263.241203
263.239897
263.238608
263.237336
263.236081
263.234841
263.233618
263.232411
263.231219
263.230043
263.228883
263.227737
263.226607
263.225491
263.224390
263.223304
263.222232
263.221174
263.220131
263.219101
263.218085
263.217082
263.216093
263.215117
263.214154
263.213204
263.212266
263.211342
263.210429
263.209530
263.208642
263.207766
263.206902
263.206050
263.205210
263.204381
263.203563
263.202757
263.201961
263.201177
263.200403
263.199640
263.198888
263.198145
263.197414
263.196692
263.195980
263.195278
263.194586
263.193904
263.193231
263.192567
263.191913
263.191268
263.190632
263.190005
263.189387
263.188778
263.188177
263.187585
263.187001
263.186425
263.185858
263.185299
263.184747
263.184204
263.183668
263.183140
263.182620
263.182107
263.181601
263.181103
263.180612
263.180128
263.179651
263.179181
263.178718
263.178261
263.177811
263.177368
263.176931
263.176501
263.176077
263.175659
263.175247
263.174841
263.174441
263.174048
263.173660
263.173277
263.172901
263.172530
263.172164
263.171804
263.171449
263.171100
263.170755
263.170416
263.170082
263.169753
263.169429
263.169110
263.168795
263.168485
263.168180
263.167880
263.167584
263.167293
263.167005
263.166723
263.166444
263.166170
263.165900
263.165634
263.165372
263.165114
263.164860
263.164610
263.164364
263.164122
263.163883
263.163648
263.163416
263.163188
263.162964
263.162743
263.162525
263.162311
263.162100
263.161893
263.161688
263.161487
263.161289
263.161093
263.160901
263.160712
263.160526
263.160343
263.160162
263.159984
263.159810
263.159637
263.159468
263.159301
263.159137
263.158975
263.158816
263.158659
263.158504
263.158353
263.158203
263.158056
263.157911
263.157768
263.157628
263.157489
263.157353
263.157219
263.157087
263.156957
263.156829
263.156703
263.156579
263.156457
263.156337
263.156218
263.156102
263.155987
263.155874
263.155763
263.155653
263.155545
263.155439
263.155335
263.155231
263.155130
263.155030
263.154932
263.154835
263.154739
263.154645
263.154552
263.154461
263.154371
263.154282
263.154195
263.154109
263.154024
263.153940
263.153858
263.153777
263.153697
263.153618
263.153540
263.153463
263.153388
263.153313
263.153239
263.153167
263.153095
263.153025
263.152955
263.152886
263.152818
263.152751
263.152685
263.152620
263.152556
263.152492
263.152429
263.152367
263.152306
263.152245
263.152185
263.152126
263.152068
263.152010
263.151952
263.151896
263.151840
263.151784
263.151730
263.151675
263.151622
263.151568
263.151516
263.151463
263.151412
263.151360
263.151309
263.151259
263.151209
263.151159
263.151110
263.151061
263.151013
263.150964
263.150916
263.150869
263.150821
263.150774
263.150727
263.150681
263.150634
263.150588
263.150542
263.150496
263.150451
263.150405
263.150360
263.150315
263.150270
263.150224
263.150180
263.150135
263.150090
263.150045
263.150000
        </DataArray>
      </PointData>
      <CellData>
      </CellData>
    </Piece>
  </UnstructuredGrid>
</VTKFile>
