<?xml version="1.0"?>
<VTKFile type="UnstructuredGrid" version="0.1" byte_order="LittleEndian">
  <UnstructuredGrid>
    <Piece NumberOfPoints="801" NumberOfCells="800">
      <Points>
        <DataArray type="Float32" NumberOfComponents="3" format="ascii">
0.000000 0.0 0.0
0.005000 0.0 0.0
0.010000 0.0 0.0
0.015000 0.0 0.0
0.020000 0.0 0.0
0.025000 0.0 0.0
0.030000 0.0 0.0
0.035000 0.0 0.0
0.040000 0.0 0.0
0.045000 0.0 0.0
0.050000 0.0 0.0
0.055000 0.0 0.0
0.060000 0.0 0.0
0.065000 0.0 0.0
0.070000 0.0 0.0
0.075000 0.0 0.0
0.080000 0.0 0.0
0.085000 0.0 0.0
0.090000 0.0 0.0
0.095000 0.0 0.0
0.100000 0.0 0.0
0.105000 0.0 0.0
0.110000 0.0 0.0
0.115000 0.0 0.0
0.120000 0.0 0.0
0.125000 0.0 0.0
0.130000 0.0 0.0
0.135000 0.0 0.0
0.140000 0.0 0.0
0.145000 0.0 0.0
0.150000 0.0 0.0
0.155000 0.0 0.0
0.160000 0.0 0.0
0.165000 0.0 0.0
0.170000 0.0 0.0
0.175000 0.0 0.0
0.180000 0.0 0.0
0.185000 0.0 0.0
0.190000 0.0 0.0
0.195000 0.0 0.0
0.200000 0.0 0.0
0.205000 0.0 0.0
0.210000 0.0 0.0
0.215000 0.0 0.0
0.220000 0.0 0.0
0.225000 0.0 0.0
0.230000 0.0 0.0
0.235000 0.0 0.0
0.240000 0.0 0.0
0.245000 0.0 0.0
0.250000 0.0 0.0
0.255000 0.0 0.0
0.260000 0.0 0.0
0.265000 0.0 0.0
0.270000 0.0 0.0
0.275000 0.0 0.0
0.280000 0.0 0.0
0.285000 0.0 0.0
0.290000 0.0 0.0
0.295000 0.0 0.0
0.300000 0.0 0.0
0.305000 0.0 0.0
0.310000 0.0 0.0
0.315000 0.0 0.0
0.320000 0.0 0.0
0.325000 0.0 0.0
0.330000 0.0 0.0
0.335000 0.0 0.0
0.340000 0.0 0.0
0.345000 0.0 0.0
0.350000 0.0 0.0
0.355000 0.0 0.0
0.360000 0.0 0.0
0.365000 0.0 0.0
0.370000 0.0 0.0
0.375000 0.0 0.0
0.380000 0.0 0.0
0.385000 0.0 0.0
0.390000 0.0 0.0
0.395000 0.0 0.0
0.400000 0.0 0.0
0.405000 0.0 0.0
0.410000 0.0 0.0
0.415000 0.0 0.0
0.420000 0.0 0.0
0.425000 0.0 0.0
0.430000 0.0 0.0
0.435000 0.0 0.0
0.440000 0.0 0.0
0.445000 0.0 0.0
0.450000 0.0 0.0
0.455000 0.0 0.0
0.460000 0.0 0.0
0.465000 0.0 0.0
0.470000 0.0 0.0
0.475000 0.0 0.0
0.480000 0.0 0.0
0.485000 0.0 0.0
0.490000 0.0 0.0
0.495000 0.0 0.0
0.500000 0.0 0.0
0.505000 0.0 0.0
0.510000 0.0 0.0
0.515000 0.0 0.0
0.520000 0.0 0.0
0.525000 0.0 0.0
0.530000 0.0 0.0
0.535000 0.0 0.0
0.540000 0.0 0.0
0.545000 0.0 0.0
0.550000 0.0 0.0
0.555000 0.0 0.0
0.560000 0.0 0.0
0.565000 0.0 0.0
0.570000 0.0 0.0
0.575000 0.0 0.0
0.580000 0.0 0.0
0.585000 0.0 0.0
0.590000 0.0 0.0
0.595000 0.0 0.0
0.600000 0.0 0.0
0.605000 0.0 0.0
0.610000 0.0 0.0
0.615000 0.0 0.0
0.620000 0.0 0.0
0.625000 0.0 0.0
0.630000 0.0 0.0
0.635000 0.0 0.0
0.640000 0.0 0.0
0.645000 0.0 0.0
0.650000 0.0 0.0
0.655000 0.0 0.0
0.660000 0.0 0.0
0.665000 0.0 0.0
0.670000 0.0 0.0
0.675000 0.0 0.0
0.680000 0.0 0.0
0.685000 0.0 0.0
0.690000 0.0 0.0
0.695000 0.0 0.0
0.700000 0.0 0.0
0.705000 0.0 0.0
0.710000 0.0 0.0
0.715000 0.0 0.0
0.720000 0.0 0.0
0.725000 0.0 0.0
0.730000 0.0 0.0
0.735000 0.0 0.0
0.740000 0.0 0.0
0.745000 0.0 0.0
0.750000 0.0 0.0
0.755000 0.0 0.0
0.760000 0.0 0.0
0.765000 0.0 0.0
0.770000 0.0 0.0
0.775000 0.0 0.0
0.780000 0.0 0.0
0.785000 0.0 0.0
0.790000 0.0 0.0
0.795000 0.0 0.0
0.800000 0.0 0.0
0.805000 0.0 0.0
0.810000 0.0 0.0
0.815000 0.0 0.0
0.820000 0.0 0.0
0.825000 0.0 0.0
0.830000 0.0 0.0
0.835000 0.0 0.0
0.840000 0.0 0.0
0.845000 0.0 0.0
0.850000 0.0 0.0
0.855000 0.0 0.0
0.860000 0.0 0.0
0.865000 0.0 0.0
0.870000 0.0 0.0
0.875000 0.0 0.0
0.880000 0.0 0.0
0.885000 0.0 0.0
0.890000 0.0 0.0
0.895000 0.0 0.0
0.900000 0.0 0.0
0.905000 0.0 0.0
0.910000 0.0 0.0
0.915000 0.0 0.0
0.920000 0.0 0.0
0.925000 0.0 0.0
0.930000 0.0 0.0
0.935000 0.0 0.0
0.940000 0.0 0.0
0.945000 0.0 0.0
0.950000 0.0 0.0
0.955000 0.0 0.0
0.960000 0.0 0.0
0.965000 0.0 0.0
0.970000 0.0 0.0
0.975000 0.0 0.0
0.980000 0.0 0.0
0.985000 0.0 0.0
0.990000 0.0 0.0
0.995000 0.0 0.0
1.000000 0.0 0.0
1.005000 0.0 0.0
1.010000 0.0 0.0
1.015000 0.0 0.0
1.020000 0.0 0.0
1.025000 0.0 0.0
1.030000 0.0 0.0
1.035000 0.0 0.0
1.040000 0.0 0.0
1.045000 0.0 0.0
1.050000 0.0 0.0
1.055000 0.0 0.0
1.060000 0.0 0.0
1.065000 0.0 0.0
1.070000 0.0 0.0
1.075000 0.0 0.0
1.080000 0.0 0.0
1.085000 0.0 0.0
1.090000 0.0 0.0
1.095000 0.0 0.0
1.100000 0.0 0.0
1.105000 0.0 0.0
1.110000 0.0 0.0
1.115000 0.0 0.0
1.120000 0.0 0.0
1.125000 0.0 0.0
1.130000 0.0 0.0
1.135000 0.0 0.0
1.140000 0.0 0.0
1.145000 0.0 0.0
1.150000 0.0 0.0
1.155000 0.0 0.0
1.160000 0.0 0.0
1.165000 0.0 0.0
1.170000 0.0 0.0
1.175000 0.0 0.0
1.180000 0.0 0.0
1.185000 0.0 0.0
1.190000 0.0 0.0
1.195000 0.0 0.0
1.200000 0.0 0.0
1.205000 0.0 0.0
1.210000 0.0 0.0
1.215000 0.0 0.0
1.220000 0.0 0.0
1.225000 0.0 0.0
1.230000 0.0 0.0
1.235000 0.0 0.0
1.240000 0.0 0.0
1.245000 0.0 0.0
1.250000 0.0 0.0
1.255000 0.0 0.0
1.260000 0.0 0.0
1.265000 0.0 0.0
1.270000 0.0 0.0
1.275000 0.0 0.0
1.280000 0.0 0.0
1.285000 0.0 0.0
1.290000 0.0 0.0
1.295000 0.0 0.0
1.300000 0.0 0.0
1.305000 0.0 0.0
1.310000 0.0 0.0
1.315000 0.0 0.0
1.320000 0.0 0.0
1.325000 0.0 0.0
1.330000 0.0 0.0
1.335000 0.0 0.0
1.340000 0.0 0.0
1.345000 0.0 0.0
1.350000 0.0 0.0
1.355000 0.0 0.0
1.360000 0.0 0.0
1.365000 0.0 0.0
1.370000 0.0 0.0
1.375000 0.0 0.0
1.380000 0.0 0.0
1.385000 0.0 0.0
1.390000 0.0 0.0
1.395000 0.0 0.0
1.400000 0.0 0.0
1.405000 0.0 0.0
1.410000 0.0 0.0
1.415000 0.0 0.0
1.420000 0.0 0.0
1.425000 0.0 0.0
1.430000 0.0 0.0
1.435000 0.0 0.0
1.440000 0.0 0.0
1.445000 0.0 0.0
1.450000 0.0 0.0
1.455000 0.0 0.0
1.460000 0.0 0.0
1.465000 0.0 0.0
1.470000 0.0 0.0
1.475000 0.0 0.0
1.480000 0.0 0.0
1.485000 0.0 0.0
1.490000 0.0 0.0
1.495000 0.0 0.0
1.500000 0.0 0.0
1.505000 0.0 0.0
1.510000 0.0 0.0
1.515000 0.0 0.0
1.520000 0.0 0.0
1.525000 0.0 0.0
1.530000 0.0 0.0
1.535000 0.0 0.0
1.540000 0.0 0.0
1.545000 0.0 0.0
1.550000 0.0 0.0
1.555000 0.0 0.0
1.560000 0.0 0.0
1.565000 0.0 0.0
1.570000 0.0 0.0
1.575000 0.0 0.0
1.580000 0.0 0.0
1.585000 0.0 0.0
1.590000 0.0 0.0
1.595000 0.0 0.0
1.600000 0.0 0.0
1.605000 0.0 0.0
1.610000 0.0 0.0
1.615000 0.0 0.0
1.620000 0.0 0.0
1.625000 0.0 0.0
1.630000 0.0 0.0
1.635000 0.0 0.0
1.640000 0.0 0.0
1.645000 0.0 0.0
1.650000 0.0 0.0
1.655000 0.0 0.0
1.660000 0.0 0.0
1.665000 0.0 0.0
1.670000 0.0 0.0
1.675000 0.0 0.0
1.680000 0.0 0.0
1.685000 0.0 0.0
1.690000 0.0 0.0
1.695000 0.0 0.0
1.700000 0.0 0.0
1.705000 0.0 0.0
1.710000 0.0 0.0
1.715000 0.0 0.0
1.720000 0.0 0.0
1.725000 0.0 0.0
1.730000 0.0 0.0
1.735000 0.0 0.0
1.740000 0.0 0.0
1.745000 0.0 0.0
1.750000 0.0 0.0
1.755000 0.0 0.0
1.760000 0.0 0.0
1.765000 0.0 0.0
1.770000 0.0 0.0
1.775000 0.0 0.0
1.780000 0.0 0.0
1.785000 0.0 0.0
1.790000 0.0 0.0
1.795000 0.0 0.0
1.800000 0.0 0.0
1.805000 0.0 0.0
1.810000 0.0 0.0
1.815000 0.0 0.0
1.820000 0.0 0.0
1.825000 0.0 0.0
1.830000 0.0 0.0
1.835000 0.0 0.0
1.840000 0.0 0.0
1.845000 0.0 0.0
1.850000 0.0 0.0
1.855000 0.0 0.0
1.860000 0.0 0.0
1.865000 0.0 0.0
1.870000 0.0 0.0
1.875000 0.0 0.0
1.880000 0.0 0.0
1.885000 0.0 0.0
1.890000 0.0 0.0
1.895000 0.0 0.0
1.900000 0.0 0.0
1.905000 0.0 0.0
1.910000 0.0 0.0
1.915000 0.0 0.0
1.920000 0.0 0.0
1.925000 0.0 0.0
1.930000 0.0 0.0
1.935000 0.0 0.0
1.940000 0.0 0.0
1.945000 0.0 0.0
1.950000 0.0 0.0
1.955000 0.0 0.0
1.960000 0.0 0.0
1.965000 0.0 0.0
1.970000 0.0 0.0
1.975000 0.0 0.0
1.980000 0.0 0.0
1.985000 0.0 0.0
1.990000 0.0 0.0
1.995000 0.0 0.0
2.000000 0.0 0.0
2.005000 0.0 0.0
2.010000 0.0 0.0
2.015000 0.0 0.0
2.020000 0.0 0.0
2.025000 0.0 0.0
2.030000 0.0 0.0
2.035000 0.0 0.0
2.040000 0.0 0.0
2.045000 0.0 0.0
2.050000 0.0 0.0
2.055000 0.0 0.0
2.060000 0.0 0.0
2.065000 0.0 0.0
2.070000 0.0 0.0
2.075000 0.0 0.0
2.080000 0.0 0.0
2.085000 0.0 0.0
2.090000 0.0 0.0
2.095000 0.0 0.0
2.100000 0.0 0.0
2.105000 0.0 0.0
2.110000 0.0 0.0
2.115000 0.0 0.0
2.120000 0.0 0.0
2.125000 0.0 0.0
2.130000 0.0 0.0
2.135000 0.0 0.0
2.140000 0.0 0.0
2.145000 0.0 0.0
2.150000 0.0 0.0
2.155000 0.0 0.0
2.160000 0.0 0.0
2.165000 0.0 0.0
2.170000 0.0 0.0
2.175000 0.0 0.0
2.180000 0.0 0.0
2.185000 0.0 0.0
2.190000 0.0 0.0
2.195000 0.0 0.0
2.200000 0.0 0.0
2.205000 0.0 0.0
2.210000 0.0 0.0
2.215000 0.0 0.0
2.220000 0.0 0.0
2.225000 0.0 0.0
2.230000 0.0 0.0
2.235000 0.0 0.0
2.240000 0.0 0.0
2.245000 0.0 0.0
2.250000 0.0 0.0
2.255000 0.0 0.0
2.260000 0.0 0.0
2.265000 0.0 0.0
2.270000 0.0 0.0
2.275000 0.0 0.0
2.280000 0.0 0.0
2.285000 0.0 0.0
2.290000 0.0 0.0
2.295000 0.0 0.0
2.300000 0.0 0.0
2.305000 0.0 0.0
2.310000 0.0 0.0
2.315000 0.0 0.0
2.320000 0.0 0.0
2.325000 0.0 0.0
2.330000 0.0 0.0
2.335000 0.0 0.0
2.340000 0.0 0.0
2.345000 0.0 0.0
2.350000 0.0 0.0
2.355000 0.0 0.0
2.360000 0.0 0.0
2.365000 0.0 0.0
2.370000 0.0 0.0
2.375000 0.0 0.0
2.380000 0.0 0.0
2.385000 0.0 0.0
2.390000 0.0 0.0
2.395000 0.0 0.0
2.400000 0.0 0.0
2.405000 0.0 0.0
2.410000 0.0 0.0
2.415000 0.0 0.0
2.420000 0.0 0.0
2.425000 0.0 0.0
2.430000 0.0 0.0
2.435000 0.0 0.0
2.440000 0.0 0.0
2.445000 0.0 0.0
2.450000 0.0 0.0
2.455000 0.0 0.0
2.460000 0.0 0.0
2.465000 0.0 0.0
2.470000 0.0 0.0
2.475000 0.0 0.0
2.480000 0.0 0.0
2.485000 0.0 0.0
2.490000 0.0 0.0
2.495000 0.0 0.0
2.500000 0.0 0.0
2.505000 0.0 0.0
2.510000 0.0 0.0
2.515000 0.0 0.0
2.520000 0.0 0.0
2.525000 0.0 0.0
2.530000 0.0 0.0
2.535000 0.0 0.0
2.540000 0.0 0.0
2.545000 0.0 0.0
2.550000 0.0 0.0
2.555000 0.0 0.0
2.560000 0.0 0.0
2.565000 0.0 0.0
2.570000 0.0 0.0
2.575000 0.0 0.0
2.580000 0.0 0.0
2.585000 0.0 0.0
2.590000 0.0 0.0
2.595000 0.0 0.0
2.600000 0.0 0.0
2.605000 0.0 0.0
2.610000 0.0 0.0
2.615000 0.0 0.0
2.620000 0.0 0.0
2.625000 0.0 0.0
2.630000 0.0 0.0
2.635000 0.0 0.0
2.640000 0.0 0.0
2.645000 0.0 0.0
2.650000 0.0 0.0
2.655000 0.0 0.0
2.660000 0.0 0.0
2.665000 0.0 0.0
2.670000 0.0 0.0
2.675000 0.0 0.0
2.680000 0.0 0.0
2.685000 0.0 0.0
2.690000 0.0 0.0
2.695000 0.0 0.0
2.700000 0.0 0.0
2.705000 0.0 0.0
2.710000 0.0 0.0
2.715000 0.0 0.0
2.720000 0.0 0.0
2.725000 0.0 0.0
2.730000 0.0 0.0
2.735000 0.0 0.0
2.740000 0.0 0.0
2.745000 0.0 0.0
2.750000 0.0 0.0
2.755000 0.0 0.0
2.760000 0.0 0.0
2.765000 0.0 0.0
2.770000 0.0 0.0
2.775000 0.0 0.0
2.780000 0.0 0.0
2.785000 0.0 0.0
2.790000 0.0 0.0
2.795000 0.0 0.0
2.800000 0.0 0.0
2.805000 0.0 0.0
2.810000 0.0 0.0
2.815000 0.0 0.0
2.820000 0.0 0.0
2.825000 0.0 0.0
2.830000 0.0 0.0
2.835000 0.0 0.0
2.840000 0.0 0.0
2.845000 0.0 0.0
2.850000 0.0 0.0
2.855000 0.0 0.0
2.860000 0.0 0.0
[...]
      <PointData Scalars="Temperature">
        <DataArray type="Float32" Name="Temperature" format="ascii">
308.150000
307.230439
306.311058
305.392035
304.473551
303.555785
302.638913
301.723116
300.808570
299.895451
298.983936
298.074199
297.166414
296.260754
295.357391
294.456494
293.558233
292.662773
291.770282
290.880923
289.994857
289.112246
288.233247
287.358017
286.486711
285.619479
284.756473
283.897839
283.043725
282.194272
281.349623
280.509916
279.675289
278.845876
278.021811
277.203226
276.390250
275.583018
274.781988
274.002976
273.430209
273.157671
273.003633
272.894880
272.808179
272.734100
272.668012
272.607333
272.550490
272.496460
272.444547
272.394257
272.345234
272.297212
272.249989
272.203413
272.157364
272.111748
272.066493
272.021541
271.976846
271.932370
271.888087
271.843971
271.800004
271.756172
271.712462
271.668866
271.625376
271.581986
271.538692
271.495490
271.452377
271.409352
271.366413
271.323558
271.280788
271.238102
271.195500
271.152981
271.110547
271.068197
271.025932
270.983753
270.941659
270.899653
270.857733
270.815902
270.774159
270.732506
270.690944
270.649472
270.608092
270.566805
270.525612
270.484513
270.443509
270.402601
270.361789
270.321076
270.280460
270.239943
270.199527
270.159211
270.118996
270.078883
270.038874
269.998968
269.959166
269.919469
269.879879
269.840395
269.801018
269.761749
269.722589
269.683538
269.644597
269.605767
269.567048
269.528442
269.489948
269.451568
269.413301
269.375149
269.337113
269.299192
269.261388
269.223701
269.186132
269.148681
269.111348
269.074135
269.037043
269.000070
268.963219
268.926489
268.889882
268.853397
268.817036
268.780798
268.744684
268.708695
268.672831
268.637093
268.601481
268.565995
268.530636
268.495405
268.460302
268.425327
268.390481
268.355764
268.321176
268.286719
268.252392
268.218195
268.184130
268.150196
268.116393
268.082723
268.049186
268.015781
267.982509
267.949371
267.916366
267.883496
267.850759
267.818158
267.785691
267.753359
267.721163
267.689102
267.657178
267.625389
267.593737
267.562221
267.530842
267.499600
267.468496
267.437528
267.406698
267.376006
267.345452
267.315035
267.284757
267.254617
267.224616
267.194753
267.165029
267.135443
267.105996
267.076689
267.047520
267.018491
266.989601
266.960850
266.932238
266.903766
266.875433
266.847240
266.819186
266.791271
266.763497
266.735861
266.708365
266.681009
266.653792
266.626715
266.599777
266.572978
266.546319
266.519799
266.493418
266.467177
266.441074
266.415111
266.389287
266.363601
266.338054
266.312646
266.287376
266.262245
266.237252
266.212398
266.187681
266.163102
266.138661
266.114358
266.090191
266.066163
266.042271
266.018516
265.994898
265.971416
265.948071
265.924862
265.901789
265.878851
265.856049
265.833383
265.810851
265.788454
265.766192
265.744063
265.722069
265.700209
265.678482
265.656889
265.635428
265.614101
265.592905
265.571842
265.550911
265.530111
265.509442
265.488905
265.468497
265.448221
265.428074
265.408057
265.388169
265.368410
265.348780
265.329278
265.309904
265.290658
265.271539
265.252546
265.233681
265.214941
265.196327
265.177839
265.159475
265.141237
265.123122
265.105131
265.087264
265.069520
265.051898
265.034399
265.017022
264.999766
264.982631
264.965616
264.948722
264.931947
264.915292
264.898756
264.882338
264.866038
264.849856
264.833791
264.817842
264.802010
264.786293
264.770692
264.755206
264.739834
264.724576
264.709432
264.694400
264.679481
264.664674
264.649979
264.635395
264.620922
264.606559
264.592305
264.578161
264.564125
264.550198
264.536379
264.522666
264.509061
264.495562
264.482168
264.468880
264.455697
264.442618
264.429643
264.416771
264.404002
264.391335
264.378770
264.366306
264.353943
264.341681
264.329518
264.317454
264.305490
264.293623
264.281854
264.270182
264.258608
264.247129
264.235746
264.224458
264.213264
264.202165
264.191160
264.180247
264.169427
264.158700
264.148063
264.137518
264.127063
264.116698
264.106423
264.096237
264.086139
264.076129
264.066206
264.056371
264.046621
264.036958
264.027380
264.017887
264.008478
263.999152
263.989910
263.980751
263.971674
263.962679
263.953765
263.944932
263.936178
263.927505
263.918911
263.910395
263.901957
263.893598
263.885315
263.877109
263.868979
263.860924
263.852945
263.845040
263.837209
263.829452
263.821768
263.814157
263.806618
263.799150
263.791753
263.784428
263.777172
263.769985
263.762868
263.755820
263.748839
263.741927
263.735081
263.728302
263.721590
263.714943
263.708361
263.701844
263.695392
263.689003
263.682678
263.676415
263.670215
263.664077
263.658000
263.651984
263.646029
263.640133
263.634298
263.628521
263.622803
263.617144
263.611542
263.605997
263.600510
263.595078
263.589703
263.584383
263.579119
263.573909
263.568753
263.563651
263.558602
263.553606
263.548663
263.543771
263.538931
263.534143
263.529405
263.524717
263.520080
263.515491
263.510952
263.506462
263.502020
263.497625
263.493278
263.488978
263.484725
263.480518
263.476356
263.472241
263.468170
263.464143
263.460161
263.456223
263.452328
263.448477
263.444668
263.440901
263.437176
263.433493
263.429851
263.426250
263.422689
263.419168
263.415687
263.412245
263.408843
263.405479
263.402153
263.398865
263.395614
263.392401
263.389225
263.386085
263.382981
263.379913
263.376881
263.373884
263.370921
263.367993
263.365099
263.362239
263.359413
263.356619
263.353859
263.351131
263.348435
263.345771
263.343139
263.340538
263.337968
263.335428
263.332919
263.330440
263.327991
263.325571
263.323180
263.320818
263.318485
263.316180
263.313903
263.311653
263.309431
263.307236
263.305068
263.302927
263.300812
263.298723
263.296660
263.294622
263.292609
263.290622
263.288659
263.286720
263.284806
263.282915
263.281049
263.279205
263.277385
263.275588
263.273814
263.272061
263.270331
263.268624
263.266937
263.265272
263.263629
263.262006
263.260405
263.258823
263.257263
263.255722
263.254201
263.252700
263.251218
263.249755
263.248312
263.246887
263.245481
263.244093
263.242723
263.241371
263.240037
263.238721
263.237422
263.236140
263.234875
263.233627
263.232396
263.231180
263.229981
263.228798
263.227631
263.226480
263.225343
263.224223
263.223117
263.222026
263.220950
263.219888
263.218841
263.217808
263.216790
263.215785
263.214793
263.213816
263.212851
263.211900
263.210962
263.210037
263.209125
263.208225
263.207338
263.206463
263.205600
263.204749
263.203910
263.203083
263.202267
263.201463
263.200670
263.199888
263.199117
263.198357
263.197608
263.196869
263.196141
263.195423
263.194716
263.194018
263.193330
263.192652
263.191984
263.191326
263.190677
263.190037
263.189406
263.188785
263.188172
263.187568
263.186973
263.186387
263.185809
263.185240
263.184679
263.184126
263.183581
263.183044
263.182515
263.181994
263.181480
263.180974
263.180476
263.179985
263.179501
263.179024
263.178554
263.178092
263.177636
263.177187
263.176745
263.176309
263.175880
263.175457
263.175041
263.174631
263.174227
263.173829
263.173437
263.173051
263.172671
263.172297
263.171928
263.171565
263.171208
263.170856
263.170509
263.170168
263.169832
263.169501
263.169175
263.168854
263.168538
263.168227
263.167921
263.167619
263.167323
263.167030
263.166743
263.166459
263.166181
263.165906
263.165636
263.165370
263.165108
263.164850
263.164597
263.164347
263.164101
263.163859
263.163621
263.163387
263.163156
263.162929
263.162706
263.162486
263.162270
263.162057
263.161847
263.161641
263.161438
263.161238
263.161042
263.160848
263.160658
263.160471
263.160287
263.160105
263.159927
263.159751
263.159579
263.159409
263.159242
263.159077
263.158915
263.158756
263.158599
263.158445
263.158294
263.158144
263.157998
263.157853
263.157711
263.157571
263.157434
263.157299
263.157165
263.157035
263.156906
263.156779
263.156654
263.156532
263.156411
263.156292
263.156176
263.156061
263.155948
263.155837
263.155727
263.155620
263.155514
263.155410
263.155307
263.155207
263.155107
263.155010
263.154914
263.154819
263.154727
263.154635
263.154545
263.154457
263.154370
263.154284
263.154200
263.154117
263.154035
263.153955
263.153876
263.153798
263.153721
263.153646
263.153572
263.153499
263.153427
263.153356
263.153286
263.153218
263.153150
263.153083
263.153018
263.152953
263.152890
263.152827
263.152766
263.152705
263.152645
263.152586
263.152528
263.152471
263.152415
263.152359
263.152304
263.152250
263.152197
263.152144
263.152093
263.152041
263.151991
263.151941
263.151892
263.151844
263.151796
263.151749
263.151702
263.151656
263.151611
263.151566
263.151522
263.151478
263.151435
263.151392
263.151349
263.151308
263.151266
263.151225
263.151185
263.151145
263.151105
263.151065
263.151026
263.150988
263.150950
263.150912
263.150874
263.150837
263.150800
263.150763
263.150726
263.150690
263.150654
263.150618
263.150583
263.150548
263.150512
263.150477
263.150443
263.150408
263.150373
263.150339
263.150305
263.150271
263.150237
263.150203
263.150169
263.150135
263.150101
263.150067
263.150034
263.150000
        </DataArray>
      </PointData>
      <CellData>
      </CellData>
    </Piece>
  </UnstructuredGrid>
</VTKFile>
