<?xml version="1.0"?>
<VTKFile type="UnstructuredGrid" version="0.1" byte_order="LittleEndian">
  <UnstructuredGrid>
    <Piece NumberOfPoints="801" NumberOfCells="800">
      <Points>
        <DataArray type="Float32" NumberOfComponents="3" format="ascii">
0.000000 0.0 0.0
0.005000 0.0 0.0
0.010000 0.0 0.0
0.015000 0.0 0.0
0.020000 0.0 0.0
0.025000 0.0 0.0
0.030000 0.0 0.0
0.035000 0.0 0.0
0.040000 0.0 0.0
0.045000 0.0 0.0
0.050000 0.0 0.0
0.055000 0.0 0.0
0.060000 0.0 0.0
0.065000 0.0 0.0
0.070000 0.0 0.0
0.075000 0.0 0.0
0.080000 0.0 0.0
0.085000 0.0 0.0
0.090000 0.0 0.0
0.095000 0.0 0.0
0.100000 0.0 0.0
0.105000 0.0 0.0
0.110000 0.0 0.0
0.115000 0.0 0.0
0.120000 0.0 0.0
0.125000 0.0 0.0
0.130000 0.0 0.0
0.135000 0.0 0.0
0.140000 0.0 0.0
0.145000 0.0 0.0
0.150000 0.0 0.0
0.155000 0.0 0.0
0.160000 0.0 0.0
0.165000 0.0 0.0
0.170000 0.0 0.0
0.175000 0.0 0.0
0.180000 0.0 0.0
0.185000 0.0 0.0
0.190000 0.0 0.0
0.195000 0.0 0.0
0.200000 0.0 0.0
0.205000 0.0 0.0
0.210000 0.0 0.0
0.215000 0.0 0.0
0.220000 0.0 0.0
0.225000 0.0 0.0
0.230000 0.0 0.0
0.235000 0.0 0.0
0.240000 0.0 0.0
0.245000 0.0 0.0
0.250000 0.0 0.0
0.255000 0.0 0.0
0.260000 0.0 0.0
0.265000 0.0 0.0
0.270000 0.0 0.0
0.275000 0.0 0.0
0.280000 0.0 0.0
0.285000 0.0 0.0
0.290000 0.0 0.0
0.295000 0.0 0.0
0.300000 0.0 0.0
0.305000 0.0 0.0
0.310000 0.0 0.0
0.315000 0.0 0.0
0.320000 0.0 0.0
0.325000 0.0 0.0
0.330000 0.0 0.0
0.335000 0.0 0.0
0.340000 0.0 0.0
0.345000 0.0 0.0
0.350000 0.0 0.0
0.355000 0.0 0.0
0.360000 0.0 0.0
0.365000 0.0 0.0
0.370000 0.0 0.0
0.375000 0.0 0.0
0.380000 0.0 0.0
0.385000 0.0 0.0
0.390000 0.0 0.0
0.395000 0.0 0.0
0.400000 0.0 0.0
0.405000 0.0 0.0
0.410000 0.0 0.0
0.415000 0.0 0.0
0.420000 0.0 0.0
0.425000 0.0 0.0
0.430000 0.0 0.0
0.435000 0.0 0.0
0.440000 0.0 0.0
0.445000 0.0 0.0
0.450000 0.0 0.0
0.455000 0.0 0.0
0.460000 0.0 0.0
0.465000 0.0 0.0
0.470000 0.0 0.0
0.475000 0.0 0.0
0.480000 0.0 0.0
0.485000 0.0 0.0
0.490000 0.0 0.0
0.495000 0.0 0.0
0.500000 0.0 0.0
0.505000 0.0 0.0
0.510000 0.0 0.0
0.515000 0.0 0.0
0.520000 0.0 0.0
0.525000 0.0 0.0
0.530000 0.0 0.0
0.535000 0.0 0.0
0.540000 0.0 0.0
0.545000 0.0 0.0
0.550000 0.0 0.0
0.555000 0.0 0.0
0.560000 0.0 0.0
0.565000 0.0 0.0
0.570000 0.0 0.0
0.575000 0.0 0.0
0.580000 0.0 0.0
0.585000 0.0 0.0
0.590000 0.0 0.0
0.595000 0.0 0.0
0.600000 0.0 0.0
0.605000 0.0 0.0
0.610000 0.0 0.0
0.615000 0.0 0.0
0.620000 0.0 0.0
0.625000 0.0 0.0
0.630000 0.0 0.0
0.635000 0.0 0.0
0.640000 0.0 0.0
0.645000 0.0 0.0
0.650000 0.0 0.0
0.655000 0.0 0.0
0.660000 0.0 0.0
0.665000 0.0 0.0
0.670000 0.0 0.0
0.675000 0.0 0.0
0.680000 0.0 0.0
0.685000 0.0 0.0
0.690000 0.0 0.0
0.695000 0.0 0.0
0.700000 0.0 0.0
0.705000 0.0 0.0
0.710000 0.0 0.0
0.715000 0.0 0.0
0.720000 0.0 0.0
0.725000 0.0 0.0
0.730000 0.0 0.0
0.735000 0.0 0.0
0.740000 0.0 0.0
0.745000 0.0 0.0
0.750000 0.0 0.0
0.755000 0.0 0.0
0.760000 0.0 0.0
0.765000 0.0 0.0
0.770000 0.0 0.0
0.775000 0.0 0.0
0.780000 0.0 0.0
0.785000 0.0 0.0
0.790000 0.0 0.0
0.795000 0.0 0.0
0.800000 0.0 0.0
0.805000 0.0 0.0
0.810000 0.0 0.0
0.815000 0.0 0.0
0.820000 0.0 0.0
0.825000 0.0 0.0
0.830000 0.0 0.0
0.835000 0.0 0.0
0.840000 0.0 0.0
0.845000 0.0 0.0
0.850000 0.0 0.0
0.855000 0.0 0.0
0.860000 0.0 0.0
0.865000 0.0 0.0
0.870000 0.0 0.0
0.875000 0.0 0.0
0.880000 0.0 0.0
0.885000 0.0 0.0
0.890000 0.0 0.0
0.895000 0.0 0.0
0.900000 0.0 0.0
0.905000 0.0 0.0
0.910000 0.0 0.0
0.915000 0.0 0.0
0.920000 0.0 0.0
0.925000 0.0 0.0
0.930000 0.0 0.0
0.935000 0.0 0.0
0.940000 0.0 0.0
0.945000 0.0 0.0
0.950000 0.0 0.0
0.955000 0.0 0.0
0.960000 0.0 0.0
0.965000 0.0 0.0
0.970000 0.0 0.0
0.975000 0.0 0.0
0.980000 0.0 0.0
0.985000 0.0 0.0
0.990000 0.0 0.0
0.995000 0.0 0.0
1.000000 0.0 0.0
1.005000 0.0 0.0
1.010000 0.0 0.0
1.015000 0.0 0.0
1.020000 0.0 0.0
1.025000 0.0 0.0
1.030000 0.0 0.0
1.035000 0.0 0.0
1.040000 0.0 0.0
1.045000 0.0 0.0
1.050000 0.0 0.0
1.055000 0.0 0.0
1.060000 0.0 0.0
1.065000 0.0 0.0
1.070000 0.0 0.0
1.075000 0.0 0.0
1.080000 0.0 0.0
1.085000 0.0 0.0
1.090000 0.0 0.0
1.095000 0.0 0.0
1.100000 0.0 0.0
1.105000 0.0 0.0
1.110000 0.0 0.0
1.115000 0.0 0.0
1.120000 0.0 0.0
1.125000 0.0 0.0
1.130000 0.0 0.0
1.135000 0.0 0.0
1.140000 0.0 0.0
1.145000 0.0 0.0
1.150000 0.0 0.0
1.155000 0.0 0.0
1.160000 0.0 0.0
1.165000 0.0 0.0
1.170000 0.0 0.0
1.175000 0.0 0.0
1.180000 0.0 0.0
1.185000 0.0 0.0
1.190000 0.0 0.0
1.195000 0.0 0.0
1.200000 0.0 0.0
1.205000 0.0 0.0
1.210000 0.0 0.0
1.215000 0.0 0.0
1.220000 0.0 0.0
1.225000 0.0 0.0
1.230000 0.0 0.0
1.235000 0.0 0.0
1.240000 0.0 0.0
1.245000 0.0 0.0
1.250000 0.0 0.0
1.255000 0.0 0.0
1.260000 0.0 0.0
1.265000 0.0 0.0
1.270000 0.0 0.0
1.275000 0.0 0.0
1.280000 0.0 0.0
1.285000 0.0 0.0
1.290000 0.0 0.0
1.295000 0.0 0.0
1.300000 0.0 0.0
1.305000 0.0 0.0
1.310000 0.0 0.0
1.315000 0.0 0.0
1.320000 0.0 0.0
1.325000 0.0 0.0
1.330000 0.0 0.0
1.335000 0.0 0.0
1.340000 0.0 0.0
1.345000 0.0 0.0
1.350000 0.0 0.0
1.355000 0.0 0.0
1.360000 0.0 0.0
1.365000 0.0 0.0
1.370000 0.0 0.0
1.375000 0.0 0.0
1.380000 0.0 0.0
1.385000 0.0 0.0
1.390000 0.0 0.0
1.395000 0.0 0.0
1.400000 0.0 0.0
1.405000 0.0 0.0
1.410000 0.0 0.0
1.415000 0.0 0.0
1.420000 0.0 0.0
1.425000 0.0 0.0
1.430000 0.0 0.0
1.435000 0.0 0.0
1.440000 0.0 0.0
1.445000 0.0 0.0
1.450000 0.0 0.0
1.455000 0.0 0.0
1.460000 0.0 0.0
1.465000 0.0 0.0
1.470000 0.0 0.0
1.475000 0.0 0.0
1.480000 0.0 0.0
1.485000 0.0 0.0
1.490000 0.0 0.0
1.495000 0.0 0.0
1.500000 0.0 0.0
1.505000 0.0 0.0
1.510000 0.0 0.0
1.515000 0.0 0.0
1.520000 0.0 0.0
1.525000 0.0 0.0
1.530000 0.0 0.0
1.535000 0.0 0.0
1.540000 0.0 0.0
1.545000 0.0 0.0
1.550000 0.0 0.0
1.555000 0.0 0.0
1.560000 0.0 0.0
1.565000 0.0 0.0
1.570000 0.0 0.0
1.575000 0.0 0.0
1.580000 0.0 0.0
1.585000 0.0 0.0
1.590000 0.0 0.0
1.595000 0.0 0.0
1.600000 0.0 0.0
1.605000 0.0 0.0
1.610000 0.0 0.0
1.615000 0.0 0.0
1.620000 0.0 0.0
1.625000 0.0 0.0
1.630000 0.0 0.0
1.635000 0.0 0.0
1.640000 0.0 0.0
1.645000 0.0 0.0
1.650000 0.0 0.0
1.655000 0.0 0.0
1.660000 0.0 0.0
1.665000 0.0 0.0
1.670000 0.0 0.0
1.675000 0.0 0.0
1.680000 0.0 0.0
1.685000 0.0 0.0
1.690000 0.0 0.0
1.695000 0.0 0.0
1.700000 0.0 0.0
1.705000 0.0 0.0
1.710000 0.0 0.0
1.715000 0.0 0.0
1.720000 0.0 0.0
1.725000 0.0 0.0
1.730000 0.0 0.0
1.735000 0.0 0.0
1.740000 0.0 0.0
1.745000 0.0 0.0
1.750000 0.0 0.0
1.755000 0.0 0.0
1.760000 0.0 0.0
1.765000 0.0 0.0
1.770000 0.0 0.0
1.775000 0.0 0.0
1.780000 0.0 0.0
1.785000 0.0 0.0
1.790000 0.0 0.0
1.795000 0.0 0.0
1.800000 0.0 0.0
1.805000 0.0 0.0
1.810000 0.0 0.0
1.815000 0.0 0.0
1.820000 0.0 0.0
1.825000 0.0 0.0
1.830000 0.0 0.0
1.835000 0.0 0.0
1.840000 0.0 0.0
1.845000 0.0 0.0
1.850000 0.0 0.0
1.855000 0.0 0.0
1.860000 0.0 0.0
1.865000 0.0 0.0
1.870000 0.0 0.0
1.875000 0.0 0.0
1.880000 0.0 0.0
1.885000 0.0 0.0
1.890000 0.0 0.0
1.895000 0.0 0.0
1.900000 0.0 0.0
1.905000 0.0 0.0
1.910000 0.0 0.0
1.915000 0.0 0.0
1.920000 0.0 0.0
1.925000 0.0 0.0
1.930000 0.0 0.0
1.935000 0.0 0.0
1.940000 0.0 0.0
1.945000 0.0 0.0
1.950000 0.0 0.0
1.955000 0.0 0.0
1.960000 0.0 0.0
1.965000 0.0 0.0
1.970000 0.0 0.0
1.975000 0.0 0.0
1.980000 0.0 0.0
1.985000 0.0 0.0
1.990000 0.0 0.0
1.995000 0.0 0.0
2.000000 0.0 0.0
2.005000 0.0 0.0
2.010000 0.0 0.0
2.015000 0.0 0.0
2.020000 0.0 0.0
2.025000 0.0 0.0
2.030000 0.0 0.0
2.035000 0.0 0.0
2.040000 0.0 0.0
2.045000 0.0 0.0
2.050000 0.0 0.0
2.055000 0.0 0.0
2.060000 0.0 0.0
2.065000 0.0 0.0
2.070000 0.0 0.0
2.075000 0.0 0.0
2.080000 0.0 0.0
2.085000 0.0 0.0
2.090000 0.0 0.0
2.095000 0.0 0.0
2.100000 0.0 0.0
2.105000 0.0 0.0
2.110000 0.0 0.0
2.115000 0.0 0.0
2.120000 0.0 0.0
2.125000 0.0 0.0
2.130000 0.0 0.0
2.135000 0.0 0.0
2.140000 0.0 0.0
2.145000 0.0 0.0
2.150000 0.0 0.0
2.155000 0.0 0.0
2.160000 0.0 0.0
2.165000 0.0 0.0
2.170000 0.0 0.0
2.175000 0.0 0.0
2.180000 0.0 0.0
2.185000 0.0 0.0
2.190000 0.0 0.0
2.195000 0.0 0.0
2.200000 0.0 0.0
2.205000 0.0 0.0
2.210000 0.0 0.0
2.215000 0.0 0.0
2.220000 0.0 0.0
2.225000 0.0 0.0
2.230000 0.0 0.0
2.235000 0.0 0.0
2.240000 0.0 0.0
2.245000 0.0 0.0
2.250000 0.0 0.0
2.255000 0.0 0.0
2.260000 0.0 0.0
2.265000 0.0 0.0
2.270000 0.0 0.0
2.275000 0.0 0.0
2.280000 0.0 0.0
2.285000 0.0 0.0
2.290000 0.0 0.0
2.295000 0.0 0.0
2.300000 0.0 0.0
2.305000 0.0 0.0
2.310000 0.0 0.0
2.315000 0.0 0.0
2.320000 0.0 0.0
2.325000 0.0 0.0
2.330000 0.0 0.0
2.335000 0.0 0.0
2.340000 0.0 0.0
2.345000 0.0 0.0
2.350000 0.0 0.0
2.355000 0.0 0.0
2.360000 0.0 0.0
2.365000 0.0 0.0
2.370000 0.0 0.0
2.375000 0.0 0.0
2.380000 0.0 0.0
2.385000 0.0 0.0
2.390000 0.0 0.0
2.395000 0.0 0.0
2.400000 0.0 0.0
2.405000 0.0 0.0
2.410000 0.0 0.0
2.415000 0.0 0.0
2.420000 0.0 0.0
2.425000 0.0 0.0
2.430000 0.0 0.0
2.435000 0.0 0.0
2.440000 0.0 0.0
2.445000 0.0 0.0
2.450000 0.0 0.0
2.455000 0.0 0.0
2.460000 0.0 0.0
2.465000 0.0 0.0
2.470000 0.0 0.0
2.475000 0.0 0.0
2.480000 0.0 0.0
2.485000 0.0 0.0
2.490000 0.0 0.0
2.495000 0.0 0.0
2.500000 0.0 0.0
2.505000 0.0 0.0
2.510000 0.0 0.0
2.515000 0.0 0.0
2.520000 0.0 0.0
2.525000 0.0 0.0
2.530000 0.0 0.0
2.535000 0.0 0.0
2.540000 0.0 0.0
2.545000 0.0 0.0
2.550000 0.0 0.0
2.555000 0.0 0.0
2.560000 0.0 0.0
2.565000 0.0 0.0
2.570000 0.0 0.0
2.575000 0.0 0.0
2.580000 0.0 0.0
2.585000 0.0 0.0
2.590000 0.0 0.0
2.595000 0.0 0.0
2.600000 0.0 0.0
2.605000 0.0 0.0
2.610000 0.0 0.0
2.615000 0.0 0.0
2.620000 0.0 0.0
2.625000 0.0 0.0
2.630000 0.0 0.0
2.635000 0.0 0.0
2.640000 0.0 0.0
2.645000 0.0 0.0
2.650000 0.0 0.0
2.655000 0.0 0.0
2.660000 0.0 0.0
2.665000 0.0 0.0
2.670000 0.0 0.0
2.675000 0.0 0.0
2.680000 0.0 0.0
2.685000 0.0 0.0
2.690000 0.0 0.0
2.695000 0.0 0.0
2.700000 0.0 0.0
2.705000 0.0 0.0
2.710000 0.0 0.0
2.715000 0.0 0.0
2.720000 0.0 0.0
2.725000 0.0 0.0
2.730000 0.0 0.0
2.735000 0.0 0.0
2.740000 0.0 0.0
2.745000 0.0 0.0
2.750000 0.0 0.0
2.755000 0.0 0.0
2.760000 0.0 0.0
2.765000 0.0 0.0
2.770000 0.0 0.0
2.775000 0.0 0.0
2.780000 0.0 0.0
2.785000 0.0 0.0
2.790000 0.0 0.0
2.795000 0.0 0.0
2.800000 0.0 0.0
2.805000 0.0 0.0
2.810000 0.0 0.0
2.815000 0.0 0.0
2.820000 0.0 0.0
2.825000 0.0 0.0
2.830000 0.0 0.0
2.835000 0.0 0.0
2.840000 0.0 0.0
2.845000 0.0 0.0
2.850000 0.0 0.0
2.855000 0.0 0.0
2.860000 0.0 0.0
[...]
      <PointData Scalars="Temperature">
        <DataArray type="Float32" Name="Temperature" format="ascii">
308.150000
306.971380
305.793132
304.615625
303.439230
302.264316
301.091251
299.920401
298.752130
297.586799
296.424769
295.266396
294.112032
292.962029
291.816732
290.676483
289.541622
288.412482
287.289393
286.172680
285.062663
283.959657
282.863973
281.775914
280.695781
279.623865
278.560455
277.505830
276.460261
275.424030
274.400609
273.544726
273.166392
272.979190
272.852359
272.751945
272.665700
272.588005
272.515861
272.447504
272.381824
272.318085
272.255784
272.194567
272.134182
272.074446
272.015223
271.956414
271.897946
271.839765
271.781829
271.724109
271.666583
271.609234
271.552050
271.495024
271.438148
271.381420
271.324837
271.268397
271.212101
271.155947
271.099936
271.044070
270.988350
270.932778
270.877353
270.822080
270.766958
270.711991
270.657179
270.602525
270.548031
270.493698
270.439528
270.385524
270.331687
270.278019
270.224522
270.171198
270.118049
270.065075
270.012280
269.959665
269.907232
269.854981
269.802916
269.751038
269.699348
269.647849
269.596541
269.545426
269.494506
269.443782
269.393257
269.342931
269.292805
269.242882
269.193163
269.143649
269.094341
269.045242
268.996351
268.947671
268.899203
268.850948
268.802907
268.755081
268.707472
268.660081
268.612909
268.565957
268.519227
268.472718
268.426432
268.380371
268.334535
268.288925
268.243543
268.198388
268.153462
268.108766
268.064300
268.020066
267.976063
267.932294
267.888759
267.845457
267.802391
267.759560
267.716966
267.674608
267.632488
267.590606
267.548963
267.507558
267.466394
267.425469
267.384784
267.344341
267.304138
267.264177
267.224459
267.184982
267.145748
267.106756
267.068008
267.029503
266.991241
266.953223
266.915449
266.877918
266.840632
266.803589
266.766791
266.730237
266.693927
266.657861
266.622039
266.586461
266.551127
266.516037
266.481191
266.446589
266.412230
266.378114
266.344241
266.310611
266.277223
266.244078
266.211175
266.178514
266.146094
266.113915
266.081977
266.050279
266.018822
265.987603
265.956624
265.925883
265.895381
265.865116
265.835088
265.805297
265.775742
265.746422
265.717337
265.688487
265.659870
265.631486
265.603335
265.575416
265.547728
265.520270
265.493041
265.466042
265.439271
265.412728
265.386411
265.360321
265.334455
265.308814
265.283396
265.258202
265.233229
265.208477
265.183945
265.159632
265.135538
265.111662
265.088002
265.064557
265.041328
265.018312
264.995509
264.972918
264.950537
264.928367
264.906405
264.884651
264.863105
264.841764
264.820627
264.799695
264.778965
264.758437
264.738110
264.717982
264.698052
264.678320
264.658784
264.639443
264.620296
264.601342
264.582580
264.564009
264.545627
264.527434
264.509428
264.491608
264.473973
264.456522
264.439254
264.422167
264.405260
264.388533
264.371983
264.355611
264.339414
264.323392
264.307542
264.291865
264.276359
264.261022
264.245854
264.230854
264.216019
264.201349
264.186843
264.172500
264.158318
264.144296
264.130432
264.116727
264.103178
264.089784
264.076544
264.063458
264.050522
264.037738
264.025102
264.012615
264.000274
263.988079
263.976029
263.964122
263.952357
263.940733
263.929248
263.917902
263.906693
263.895621
263.884683
263.873879
263.863208
263.852668
263.842258
263.831978
263.821825
263.811799
263.801899
263.792123
263.782470
263.772940
263.763530
263.754241
263.745070
263.736017
263.727080
263.718259
263.709551
263.700957
263.692475
263.684104
263.675843
263.667690
263.659645
263.651707
263.643874
263.636145
263.628520
263.620997
263.613575
263.606254
263.599031
263.591907
263.584879
263.577948
263.571112
263.564369
263.557720
263.551162
263.544696
263.538319
263.532032
263.525832
263.519720
263.513693
263.507752
263.501895
263.496121
263.490429
263.484819
263.479289
263.473838
263.468466
263.463172
263.457954
263.452812
263.447745
263.442752
263.437833
263.432985
263.428209
263.423504
263.418868
263.414302
263.409803
263.405372
263.401007
263.396708
263.392473
263.388302
263.384195
263.380150
263.376167
263.372244
263.368382
263.364578
263.360834
263.357147
263.353517
263.349944
263.346426
263.342963
263.339554
263.336198
263.332896
263.329645
263.326446
263.323297
263.320199
263.317150
263.314149
263.311196
263.308291
263.305433
263.302620
263.299853
263.297131
263.294453
263.291819
263.289228
263.286679
263.284172
263.281706
263.279281
263.276896
263.274550
263.272243
263.269975
263.267745
263.265552
263.263395
263.261275
263.259191
263.257141
263.255127
263.253146
263.251200
263.249286
263.247405
263.245556
263.243740
263.241954
263.240199
263.238474
263.236779
263.235114
263.233478
263.231870
263.230290
263.228738
263.227213
263.225715
263.224244
263.222798
263.221378
263.219983
263.218613
263.217268
263.215946
263.214648
263.213374
263.212122
263.210893
263.209686
263.208501
263.207337
263.206195
263.205073
263.203972
263.202891
263.201830
263.200788
263.199765
263.198762
263.197777
263.196810
263.195861
263.194929
263.194016
263.193119
263.192239
263.191375
263.190528
263.189696
263.188881
263.188080
263.187295
263.186525
263.185769
263.185028
263.184301
263.183588
263.182889
263.182203
263.181530
263.180870
263.180223
263.179589
263.178966
263.178356
263.177758
263.177171
263.176596
263.176032
263.175480
263.174938
263.174406
263.173886
263.173375
263.172875
263.172385
263.171904
263.171433
263.170971
263.170519
263.170075
263.169641
263.169215
263.168798
263.168389
263.167989
263.167596
263.167212
263.166835
263.166467
263.166105
263.165751
263.165404
263.165065
263.164732
263.164406
263.164087
263.163775
263.163469
263.163169
263.162876
263.162588
263.162307
263.162032
263.161762
263.161498
263.161239
263.160986
263.160739
263.160496
263.160259
263.160026
263.159799
263.159576
263.159359
263.159145
263.158937
263.158733
263.158533
263.158337
263.158146
263.157959
263.157776
263.157596
263.157421
263.157250
263.157082
263.156918
263.156757
263.156600
263.156446
263.156296
263.156149
263.156006
263.155865
263.155727
263.155593
263.155462
263.155333
263.155207
263.155084
263.154964
263.154847
263.154732
263.154620
263.154510
263.154402
263.154298
263.154195
263.154095
263.153997
263.153901
263.153807
263.153716
263.153627
263.153539
263.153454
263.153370
263.153289
263.153209
263.153131
263.153055
263.152981
263.152909
263.152838
263.152768
263.152701
263.152635
263.152570
263.152507
263.152445
263.152385
263.152326
263.152269
263.152213
263.152158
263.152105
263.152053
263.152002
263.151952
263.151903
263.151856
263.151810
263.151764
263.151720
263.151677
263.151635
263.151594
263.151554
263.151515
263.151477
263.151439
263.151403
263.151368
263.151333
263.151299
263.151266
263.151234
263.151203
263.151172
263.151142
263.151113
263.151084
263.151057
263.151030
263.151003
263.150977
263.150952
263.150928
263.150904
263.150880
263.150858
263.150835
263.150814
263.150793
263.150772
263.150752
263.150732
263.150713
263.150695
263.150676
263.150659
263.150642
263.150625
263.150608
263.150592
263.150577
263.150562
263.150547
263.150532
263.150518
263.150504
263.150491
263.150478
263.150465
263.150453
263.150441
263.150429
263.150418
263.150407
263.150396
263.150385
263.150375
263.150365
263.150355
263.150345
263.150336
263.150327
263.150318
263.150310
263.150301
263.150293
263.150285
263.150277
263.150270
263.150262
263.150255
263.150248
263.150242
263.150235
263.150229
263.150222
263.150216
263.150210
263.150205
263.150199
263.150193
263.150188
263.150183
263.150178
263.150173
263.150168
263.150163
263.150159
263.150155
263.150150
263.150146
263.150142
263.150138
263.150134
263.150130
263.150127
263.150123
263.150120
263.150116
263.150113
263.150110
263.150107
263.150104
263.150101
263.150098
263.150095
263.150093
263.150090
263.150087
263.150085
263.150082
263.150080
263.150078
263.150076
263.150073
263.150071
263.150069
263.150067
263.150065
263.150063
263.150062
263.150060
263.150058
263.150056
263.150055
263.150053
263.150052
263.150050
263.150049
263.150047
263.150046
263.150045
263.150043
263.150042
263.150041
263.150040
263.150038
263.150037
263.150036
263.150035
263.150034
263.150033
263.150032
263.150031
263.150030
263.150029
263.150028
263.150028
263.150027
263.150026
263.150025
263.150024
263.150024
263.150023
263.150022
263.150021
263.150021
263.150020
263.150020
263.150019
263.150018
263.150018
263.150017
263.150017
263.150016
263.150016
263.150015
263.150015
263.150014
263.150014
263.150013
263.150013
263.150012
263.150012
263.150011
263.150011
263.150011
263.150010
263.150010
263.150010
263.150009
263.150009
263.150009
263.150008
263.150008
263.150008
263.150007
263.150007
263.150007
263.150006
263.150006
263.150006
263.150006
263.150005
263.150005
263.150005
263.150004
263.150004
263.150004
263.150004
263.150004
263.150003
263.150003
263.150003
263.150003
263.150002
263.150002
263.150002
263.150002
263.150001
263.150001
263.150001
263.150001
263.150001
263.150000
263.150000
263.150000
        </DataArray>
      </PointData>
      <CellData>
      </CellData>
    </Piece>
  </UnstructuredGrid>
</VTKFile>
