<?xml version="1.0"?>
<VTKFile type="UnstructuredGrid" version="0.1" byte_order="LittleEndian">
  <UnstructuredGrid>
    <Piece NumberOfPoints="801" NumberOfCells="800">
      <Points>
        <DataArray type="Float32" NumberOfComponents="3" format="ascii">
0.000000 0.0 0.0
0.005000 0.0 0.0
0.010000 0.0 0.0
0.015000 0.0 0.0
0.020000 0.0 0.0
0.025000 0.0 0.0
0.030000 0.0 0.0
0.035000 0.0 0.0
0.040000 0.0 0.0
0.045000 0.0 0.0
0.050000 0.0 0.0
0.055000 0.0 0.0
0.060000 0.0 0.0
0.065000 0.0 0.0
0.070000 0.0 0.0
0.075000 0.0 0.0
0.080000 0.0 0.0
0.085000 0.0 0.0
0.090000 0.0 0.0
0.095000 0.0 0.0
0.100000 0.0 0.0
0.105000 0.0 0.0
0.110000 0.0 0.0
0.115000 0.0 0.0
0.120000 0.0 0.0
0.125000 0.0 0.0
0.130000 0.0 0.0
0.135000 0.0 0.0
0.140000 0.0 0.0
0.145000 0.0 0.0
0.150000 0.0 0.0
0.155000 0.0 0.0
0.160000 0.0 0.0
0.165000 0.0 0.0
0.170000 0.0 0.0
0.175000 0.0 0.0
0.180000 0.0 0.0
0.185000 0.0 0.0
0.190000 0.0 0.0
0.195000 0.0 0.0
0.200000 0.0 0.0
0.205000 0.0 0.0
0.210000 0.0 0.0
0.215000 0.0 0.0
0.220000 0.0 0.0
0.225000 0.0 0.0
0.230000 0.0 0.0
0.235000 0.0 0.0
0.240000 0.0 0.0
0.245000 0.0 0.0
0.250000 0.0 0.0
0.255000 0.0 0.0
0.260000 0.0 0.0
0.265000 0.0 0.0
0.270000 0.0 0.0
0.275000 0.0 0.0
0.280000 0.0 0.0
0.285000 0.0 0.0
0.290000 0.0 0.0
0.295000 0.0 0.0
0.300000 0.0 0.0
0.305000 0.0 0.0
0.310000 0.0 0.0
0.315000 0.0 0.0
0.320000 0.0 0.0
0.325000 0.0 0.0
0.330000 0.0 0.0
0.335000 0.0 0.0
0.340000 0.0 0.0
0.345000 0.0 0.0
0.350000 0.0 0.0
0.355000 0.0 0.0
0.360000 0.0 0.0
0.365000 0.0 0.0
0.370000 0.0 0.0
0.375000 0.0 0.0
0.380000 0.0 0.0
0.385000 0.0 0.0
0.390000 0.0 0.0
0.395000 0.0 0.0
0.400000 0.0 0.0
0.405000 0.0 0.0
0.410000 0.0 0.0
0.415000 0.0 0.0
0.420000 0.0 0.0
0.425000 0.0 0.0
0.430000 0.0 0.0
0.435000 0.0 0.0
0.440000 0.0 0.0
0.445000 0.0 0.0
0.450000 0.0 0.0
0.455000 0.0 0.0
0.460000 0.0 0.0
0.465000 0.0 0.0
0.470000 0.0 0.0
0.475000 0.0 0.0
0.480000 0.0 0.0
0.485000 0.0 0.0
0.490000 0.0 0.0
0.495000 0.0 0.0
0.500000 0.0 0.0
0.505000 0.0 0.0
0.510000 0.0 0.0
0.515000 0.0 0.0
0.520000 0.0 0.0
0.525000 0.0 0.0
0.530000 0.0 0.0
0.535000 0.0 0.0
0.540000 0.0 0.0
0.545000 0.0 0.0
0.550000 0.0 0.0
0.555000 0.0 0.0
0.560000 0.0 0.0
0.565000 0.0 0.0
0.570000 0.0 0.0
0.575000 0.0 0.0
0.580000 0.0 0.0
0.585000 0.0 0.0
0.590000 0.0 0.0
0.595000 0.0 0.0
0.600000 0.0 0.0
0.605000 0.0 0.0
0.610000 0.0 0.0
0.615000 0.0 0.0
0.620000 0.0 0.0
0.625000 0.0 0.0
0.630000 0.0 0.0
0.635000 0.0 0.0
0.640000 0.0 0.0
0.645000 0.0 0.0
0.650000 0.0 0.0
0.655000 0.0 0.0
0.660000 0.0 0.0
0.665000 0.0 0.0
0.670000 0.0 0.0
0.675000 0.0 0.0
0.680000 0.0 0.0
0.685000 0.0 0.0
0.690000 0.0 0.0
0.695000 0.0 0.0
0.700000 0.0 0.0
0.705000 0.0 0.0
0.710000 0.0 0.0
0.715000 0.0 0.0
0.720000 0.0 0.0
0.725000 0.0 0.0
0.730000 0.0 0.0
0.735000 0.0 0.0
0.740000 0.0 0.0
0.745000 0.0 0.0
0.750000 0.0 0.0
0.755000 0.0 0.0
0.760000 0.0 0.0
0.765000 0.0 0.0
0.770000 0.0 0.0
0.775000 0.0 0.0
0.780000 0.0 0.0
0.785000 0.0 0.0
0.790000 0.0 0.0
0.795000 0.0 0.0
0.800000 0.0 0.0
0.805000 0.0 0.0
0.810000 0.0 0.0
0.815000 0.0 0.0
0.820000 0.0 0.0
0.825000 0.0 0.0
0.830000 0.0 0.0
0.835000 0.0 0.0
0.840000 0.0 0.0
0.845000 0.0 0.0
0.850000 0.0 0.0
0.855000 0.0 0.0
0.860000 0.0 0.0
0.865000 0.0 0.0
0.870000 0.0 0.0
0.875000 0.0 0.0
0.880000 0.0 0.0
0.885000 0.0 0.0
0.890000 0.0 0.0
0.895000 0.0 0.0
0.900000 0.0 0.0
0.905000 0.0 0.0
0.910000 0.0 0.0
0.915000 0.0 0.0
0.920000 0.0 0.0
0.925000 0.0 0.0
0.930000 0.0 0.0
0.935000 0.0 0.0
0.940000 0.0 0.0
0.945000 0.0 0.0
0.950000 0.0 0.0
0.955000 0.0 0.0
0.960000 0.0 0.0
0.965000 0.0 0.0
0.970000 0.0 0.0
0.975000 0.0 0.0
0.980000 0.0 0.0
0.985000 0.0 0.0
0.990000 0.0 0.0
0.995000 0.0 0.0
1.000000 0.0 0.0
1.005000 0.0 0.0
1.010000 0.0 0.0
1.015000 0.0 0.0
1.020000 0.0 0.0
1.025000 0.0 0.0
1.030000 0.0 0.0
1.035000 0.0 0.0
1.040000 0.0 0.0
1.045000 0.0 0.0
1.050000 0.0 0.0
1.055000 0.0 0.0
1.060000 0.0 0.0
1.065000 0.0 0.0
1.070000 0.0 0.0
1.075000 0.0 0.0
1.080000 0.0 0.0
1.085000 0.0 0.0
1.090000 0.0 0.0
1.095000 0.0 0.0
1.100000 0.0 0.0
1.105000 0.0 0.0
1.110000 0.0 0.0
1.115000 0.0 0.0
1.120000 0.0 0.0
1.125000 0.0 0.0
1.130000 0.0 0.0
1.135000 0.0 0.0
1.140000 0.0 0.0
1.145000 0.0 0.0
1.150000 0.0 0.0
1.155000 0.0 0.0
1.160000 0.0 0.0
1.165000 0.0 0.0
1.170000 0.0 0.0
1.175000 0.0 0.0
1.180000 0.0 0.0
1.185000 0.0 0.0
1.190000 0.0 0.0
1.195000 0.0 0.0
1.200000 0.0 0.0
1.205000 0.0 0.0
1.210000 0.0 0.0
1.215000 0.0 0.0
1.220000 0.0 0.0
1.225000 0.0 0.0
1.230000 0.0 0.0
1.235000 0.0 0.0
1.240000 0.0 0.0
1.245000 0.0 0.0
1.250000 0.0 0.0
1.255000 0.0 0.0
1.260000 0.0 0.0
1.265000 0.0 0.0
1.270000 0.0 0.0
1.275000 0.0 0.0
1.280000 0.0 0.0
1.285000 0.0 0.0
1.290000 0.0 0.0
1.295000 0.0 0.0
1.300000 0.0 0.0
1.305000 0.0 0.0
1.310000 0.0 0.0
1.315000 0.0 0.0
1.320000 0.0 0.0
1.325000 0.0 0.0
1.330000 0.0 0.0
1.335000 0.0 0.0
1.340000 0.0 0.0
1.345000 0.0 0.0
1.350000 0.0 0.0
1.355000 0.0 0.0
1.360000 0.0 0.0
1.365000 0.0 0.0
1.370000 0.0 0.0
1.375000 0.0 0.0
1.380000 0.0 0.0
1.385000 0.0 0.0
1.390000 0.0 0.0
1.395000 0.0 0.0
1.400000 0.0 0.0
1.405000 0.0 0.0
1.410000 0.0 0.0
1.415000 0.0 0.0
1.420000 0.0 0.0
1.425000 0.0 0.0
1.430000 0.0 0.0
1.435000 0.0 0.0
1.440000 0.0 0.0
1.445000 0.0 0.0
1.450000 0.0 0.0
1.455000 0.0 0.0
1.460000 0.0 0.0
1.465000 0.0 0.0
1.470000 0.0 0.0
1.475000 0.0 0.0
1.480000 0.0 0.0
1.485000 0.0 0.0
1.490000 0.0 0.0
1.495000 0.0 0.0
1.500000 0.0 0.0
1.505000 0.0 0.0
1.510000 0.0 0.0
1.515000 0.0 0.0
1.520000 0.0 0.0
1.525000 0.0 0.0
1.530000 0.0 0.0
1.535000 0.0 0.0
1.540000 0.0 0.0
1.545000 0.0 0.0
1.550000 0.0 0.0
1.555000 0.0 0.0
1.560000 0.0 0.0
1.565000 0.0 0.0
1.570000 0.0 0.0
1.575000 0.0 0.0
1.580000 0.0 0.0
1.585000 0.0 0.0
1.590000 0.0 0.0
1.595000 0.0 0.0
1.600000 0.0 0.0
1.605000 0.0 0.0
1.610000 0.0 0.0
1.615000 0.0 0.0
1.620000 0.0 0.0
1.625000 0.0 0.0
1.630000 0.0 0.0
1.635000 0.0 0.0
1.640000 0.0 0.0
1.645000 0.0 0.0
1.650000 0.0 0.0
1.655000 0.0 0.0
1.660000 0.0 0.0
1.665000 0.0 0.0
1.670000 0.0 0.0
1.675000 0.0 0.0
1.680000 0.0 0.0
1.685000 0.0 0.0
1.690000 0.0 0.0
1.695000 0.0 0.0
1.700000 0.0 0.0
1.705000 0.0 0.0
1.710000 0.0 0.0
1.715000 0.0 0.0
1.720000 0.0 0.0
1.725000 0.0 0.0
1.730000 0.0 0.0
1.735000 0.0 0.0
1.740000 0.0 0.0
1.745000 0.0 0.0
1.750000 0.0 0.0
1.755000 0.0 0.0
1.760000 0.0 0.0
1.765000 0.0 0.0
1.770000 0.0 0.0
1.775000 0.0 0.0
1.780000 0.0 0.0
1.785000 0.0 0.0
1.790000 0.0 0.0
1.795000 0.0 0.0
1.800000 0.0 0.0
1.805000 0.0 0.0
1.810000 0.0 0.0
1.815000 0.0 0.0
1.820000 0.0 0.0
1.825000 0.0 0.0
1.830000 0.0 0.0
1.835000 0.0 0.0
1.840000 0.0 0.0
1.845000 0.0 0.0
1.850000 0.0 0.0
1.855000 0.0 0.0
1.860000 0.0 0.0
1.865000 0.0 0.0
1.870000 0.0 0.0
1.875000 0.0 0.0
1.880000 0.0 0.0
1.885000 0.0 0.0
1.890000 0.0 0.0
1.895000 0.0 0.0
1.900000 0.0 0.0
1.905000 0.0 0.0
1.910000 0.0 0.0
1.915000 0.0 0.0
1.920000 0.0 0.0
1.925000 0.0 0.0
1.930000 0.0 0.0
1.935000 0.0 0.0
1.940000 0.0 0.0
1.945000 0.0 0.0
1.950000 0.0 0.0
1.955000 0.0 0.0
1.960000 0.0 0.0
1.965000 0.0 0.0
1.970000 0.0 0.0
1.975000 0.0 0.0
1.980000 0.0 0.0
1.985000 0.0 0.0
1.990000 0.0 0.0
1.995000 0.0 0.0
2.000000 0.0 0.0
2.005000 0.0 0.0
2.010000 0.0 0.0
2.015000 0.0 0.0
2.020000 0.0 0.0
2.025000 0.0 0.0
2.030000 0.0 0.0
2.035000 0.0 0.0
2.040000 0.0 0.0
2.045000 0.0 0.0
2.050000 0.0 0.0
2.055000 0.0 0.0
2.060000 0.0 0.0
2.065000 0.0 0.0
2.070000 0.0 0.0
2.075000 0.0 0.0
2.080000 0.0 0.0
2.085000 0.0 0.0
2.090000 0.0 0.0
2.095000 0.0 0.0
2.100000 0.0 0.0
2.105000 0.0 0.0
2.110000 0.0 0.0
2.115000 0.0 0.0
2.120000 0.0 0.0
2.125000 0.0 0.0
2.130000 0.0 0.0
2.135000 0.0 0.0
2.140000 0.0 0.0
2.145000 0.0 0.0
2.150000 0.0 0.0
2.155000 0.0 0.0
2.160000 0.0 0.0
2.165000 0.0 0.0
2.170000 0.0 0.0
2.175000 0.0 0.0
2.180000 0.0 0.0
2.185000 0.0 0.0
2.190000 0.0 0.0
2.195000 0.0 0.0
2.200000 0.0 0.0
2.205000 0.0 0.0
2.210000 0.0 0.0
2.215000 0.0 0.0
2.220000 0.0 0.0
2.225000 0.0 0.0
2.230000 0.0 0.0
2.235000 0.0 0.0
2.240000 0.0 0.0
2.245000 0.0 0.0
2.250000 0.0 0.0
2.255000 0.0 0.0
2.260000 0.0 0.0
2.265000 0.0 0.0
2.270000 0.0 0.0
2.275000 0.0 0.0
2.280000 0.0 0.0
2.285000 0.0 0.0
2.290000 0.0 0.0
2.295000 0.0 0.0
2.300000 0.0 0.0
2.305000 0.0 0.0
2.310000 0.0 0.0
2.315000 0.0 0.0
2.320000 0.0 0.0
2.325000 0.0 0.0
2.330000 0.0 0.0
2.335000 0.0 0.0
2.340000 0.0 0.0
2.345000 0.0 0.0
2.350000 0.0 0.0
2.355000 0.0 0.0
2.360000 0.0 0.0
2.365000 0.0 0.0
2.370000 0.0 0.0
2.375000 0.0 0.0
2.380000 0.0 0.0
2.385000 0.0 0.0
2.390000 0.0 0.0
2.395000 0.0 0.0
2.400000 0.0 0.0
2.405000 0.0 0.0
2.410000 0.0 0.0
2.415000 0.0 0.0
2.420000 0.0 0.0
2.425000 0.0 0.0
2.430000 0.0 0.0
2.435000 0.0 0.0
2.440000 0.0 0.0
2.445000 0.0 0.0
2.450000 0.0 0.0
2.455000 0.0 0.0
2.460000 0.0 0.0
2.465000 0.0 0.0
2.470000 0.0 0.0
2.475000 0.0 0.0
2.480000 0.0 0.0
2.485000 0.0 0.0
2.490000 0.0 0.0
2.495000 0.0 0.0
2.500000 0.0 0.0
2.505000 0.0 0.0
2.510000 0.0 0.0
2.515000 0.0 0.0
2.520000 0.0 0.0
2.525000 0.0 0.0
2.530000 0.0 0.0
2.535000 0.0 0.0
2.540000 0.0 0.0
2.545000 0.0 0.0
2.550000 0.0 0.0
2.555000 0.0 0.0
2.560000 0.0 0.0
2.565000 0.0 0.0
2.570000 0.0 0.0
2.575000 0.0 0.0
2.580000 0.0 0.0
2.585000 0.0 0.0
2.590000 0.0 0.0
2.595000 0.0 0.0
2.600000 0.0 0.0
2.605000 0.0 0.0
2.610000 0.0 0.0
2.615000 0.0 0.0
2.620000 0.0 0.0
2.625000 0.0 0.0
2.630000 0.0 0.0
2.635000 0.0 0.0
2.640000 0.0 0.0
2.645000 0.0 0.0
2.650000 0.0 0.0
2.655000 0.0 0.0
2.660000 0.0 0.0
2.665000 0.0 0.0
2.670000 0.0 0.0
2.675000 0.0 0.0
2.680000 0.0 0.0
2.685000 0.0 0.0
2.690000 0.0 0.0
2.695000 0.0 0.0
2.700000 0.0 0.0
2.705000 0.0 0.0
2.710000 0.0 0.0
2.715000 0.0 0.0
2.720000 0.0 0.0
2.725000 0.0 0.0
2.730000 0.0 0.0
2.735000 0.0 0.0
2.740000 0.0 0.0
2.745000 0.0 0.0
2.750000 0.0 0.0
2.755000 0.0 0.0
2.760000 0.0 0.0
2.765000 0.0 0.0
2.770000 0.0 0.0
2.775000 0.0 0.0
2.780000 0.0 0.0
2.785000 0.0 0.0
2.790000 0.0 0.0
2.795000 0.0 0.0
2.800000 0.0 0.0
2.805000 0.0 0.0
2.810000 0.0 0.0
2.815000 0.0 0.0
2.820000 0.0 0.0
2.825000 0.0 0.0
2.830000 0.0 0.0
2.835000 0.0 0.0
2.840000 0.0 0.0
2.845000 0.0 0.0
2.850000 0.0 0.0
2.855000 0.0 0.0
2.860000 0.0 0.0
[...]
      <PointData Scalars="Temperature">
        <DataArray type="Float32" Name="Temperature" format="ascii">
308.150000
307.121572
306.093394
305.065715
304.038784
303.012848
301.988157
300.964956
299.943491
298.924007
297.906747
296.891952
295.879862
294.870714
293.864744
292.862185
291.863268
290.868220
289.877267
288.890631
287.908530
286.931180
285.958793
284.991577
284.029735
283.073469
282.122974
281.178442
280.240062
279.308016
278.382485
277.463644
276.551666
275.646724
274.749437
273.890138
273.341931
273.095834
272.950201
272.843537
272.756309
272.680357
272.611587
272.547678
272.487207
272.429241
272.373146
272.318473
272.264900
272.212187
272.160157
272.108675
272.057638
272.006966
271.956600
271.906492
271.856606
271.806913
271.757392
271.708025
271.658800
271.609706
271.560737
271.511885
271.463148
271.414522
271.366004
271.317594
271.269290
271.221093
271.173002
271.125017
271.077139
271.029368
270.981706
270.934153
270.886710
270.839378
270.792158
270.745051
270.698059
270.651182
270.604423
270.557780
270.511257
270.464854
270.418573
270.372414
270.326378
270.280468
270.234683
270.189026
270.143496
270.098097
270.052827
270.007689
269.962684
269.917812
269.873075
269.828474
269.784009
269.739683
269.695495
269.651448
269.607541
269.563776
269.520154
269.476676
269.433342
269.390154
269.347112
269.304218
269.261473
269.218877
269.176430
269.134135
269.091991
269.050001
269.008163
268.966480
268.924952
268.883579
268.842364
268.801305
268.760405
268.719663
268.679081
268.638659
268.598398
268.558299
268.518361
268.478587
268.438976
268.399529
268.360247
268.321130
268.282179
268.243394
268.204776
268.166326
268.128044
268.089931
268.051986
268.014211
267.976606
267.939172
267.901909
267.864816
267.827896
267.791148
267.754572
267.718169
267.681940
267.645884
267.610002
267.574295
267.538762
267.503404
267.468222
267.433215
267.398383
267.363728
267.329249
267.294946
267.260821
267.226872
267.193100
267.159505
267.126088
267.092848
267.059786
267.026902
266.994196
266.961667
266.929317
266.897145
266.865152
266.833336
266.801699
266.770241
266.738960
266.707858
266.676935
266.646190
266.615623
266.585234
266.555024
266.524992
266.495138
266.465462
266.435963
266.406643
266.377500
266.348535
266.319747
266.291137
266.262703
266.234446
266.206366
266.178463
266.150736
266.123185
266.095809
266.068610
266.041586
266.014737
265.988062
265.961563
265.935237
265.909086
265.883108
265.857304
265.831672
265.806214
265.780927
265.755813
265.730871
265.706099
265.681499
265.657069
265.632809
265.608719
265.584799
265.561047
265.537464
265.514049
265.490801
265.467720
265.444807
265.422059
265.399477
265.377060
265.354809
265.332721
265.310797
265.289037
265.267439
265.246004
265.224730
265.203617
265.182665
265.161873
265.141241
265.120767
265.100452
265.080295
265.060295
265.040451
265.020764
265.001232
264.981855
264.962632
264.943563
264.924647
264.905884
264.887272
264.868811
264.850501
264.832340
264.814329
264.796466
264.778752
264.761184
264.743763
264.726488
264.709359
264.692374
264.675533
264.658835
264.642279
264.625866
264.609593
264.593461
264.577469
264.561616
264.545901
264.530324
264.514884
264.499580
264.484412
264.469378
264.454479
264.439712
264.425079
264.410577
264.396207
264.381967
264.367856
264.353875
264.340022
264.326296
264.312698
264.299225
264.285878
264.272655
264.259556
264.246579
264.233726
264.220994
264.208382
264.195891
264.183519
264.171266
264.159130
264.147112
264.135210
264.123423
264.111752
264.100194
264.088750
264.077418
264.066199
264.055090
264.044091
264.033203
264.022423
264.011751
264.001186
263.990728
263.980376
263.970129
263.959986
263.949947
263.940011
263.930177
263.920445
263.910813
263.901280
263.891847
263.882513
263.873276
263.864136
263.855093
263.846145
263.837291
263.828532
263.819866
263.811293
263.802812
263.794421
263.786121
263.777911
263.769790
263.761758
263.753812
263.745954
263.738182
263.730495
263.722894
263.715376
263.707941
263.700590
263.693320
263.686132
263.679024
263.671996
263.665048
263.658178
263.651386
263.644671
263.638033
263.631471
263.624983
263.618571
263.612232
263.605967
263.599774
263.593654
263.587604
263.581625
263.575717
263.569877
263.564107
263.558404
263.552769
263.547201
263.541699
263.536263
263.530892
263.525585
263.520342
263.515163
263.510045
263.504990
263.499996
263.495063
263.490190
263.485377
263.480623
263.475928
263.471290
263.466709
263.462186
263.457718
263.453306
263.448950
263.444647
263.440399
263.436204
263.432062
263.427973
263.423935
263.419948
263.416012
263.412127
263.408291
263.404504
263.400766
263.397076
263.393434
263.389838
263.386290
263.382787
263.379331
263.375919
263.372552
263.369229
263.365950
263.362715
263.359521
263.356371
263.353262
263.350194
263.347168
263.344181
263.341235
263.338329
263.335461
263.332632
263.329842
263.327089
263.324373
263.321695
263.319053
263.316447
263.313877
263.311342
263.308842
263.306377
263.303945
263.301548
263.299183
263.296852
263.294553
263.292286
263.290050
263.287847
263.285674
263.283532
263.281420
263.279337
263.277285
263.275261
263.273267
263.271301
263.269363
263.267452
263.265570
263.263714
263.261885
263.260082
263.258306
263.256555
263.254830
263.253130
263.251454
263.249804
263.248177
263.246574
263.244995
263.243440
263.241907
263.240397
263.238909
263.237443
263.235999
263.234577
263.233176
263.231796
263.230437
263.229098
263.227780
263.226481
263.225202
263.223942
263.222702
263.221480
263.220277
263.219092
263.217926
263.216777
263.215646
263.214532
263.213436
263.212357
263.211294
263.210248
263.209218
263.208204
263.207206
263.206223
263.205256
263.204304
263.203367
263.202445
263.201537
263.200644
263.199765
263.198899
263.198048
263.197210
263.196385
263.195574
263.194776
263.193990
263.193217
263.192456
263.191708
263.190972
263.190248
263.189535
263.188834
263.188145
263.187466
263.186799
263.186143
263.185497
263.184862
263.184238
263.183624
263.183020
263.182425
263.181841
263.181267
263.180702
263.180146
263.179600
263.179062
263.178534
263.178015
263.177504
263.177002
263.176508
263.176023
263.175546
263.175077
263.174616
263.174163
263.173717
263.173279
263.172849
263.172426
263.172010
263.171601
263.171200
263.170805
263.170417
263.170036
263.169661
263.169293
263.168931
263.168576
263.168227
263.167883
263.167546
263.167215
263.166890
263.166570
263.166256
263.165947
263.165644
263.165346
263.165054
263.164766
263.164484
263.164207
263.163935
263.163667
263.163404
263.163147
263.162893
263.162644
263.162400
263.162160
263.161925
263.161693
263.161466
263.161243
263.161024
263.160809
263.160598
263.160391
263.160188
263.159988
263.159792
263.159599
263.159410
263.159225
263.159043
263.158864
263.158689
263.158517
263.158348
263.158182
263.158019
263.157860
263.157703
263.157549
263.157398
263.157250
263.157105
263.156962
263.156822
263.156685
263.156550
263.156418
263.156289
263.156162
263.156037
263.155914
263.155794
263.155677
263.155561
263.155448
263.155337
263.155228
263.155121
263.155016
263.154913
263.154812
263.154713
263.154616
263.154521
263.154428
263.154336
263.154247
263.154159
263.154073
263.153988
263.153905
263.153824
263.153744
263.153666
263.153589
263.153514
263.153441
263.153369
263.153298
263.153228
263.153161
263.153094
263.153029
263.152965
263.152902
263.152840
263.152780
263.152721
263.152663
263.152607
263.152551
263.152497
263.152443
263.152391
263.152340
263.152290
263.152240
263.152192
263.152145
263.152099
263.152053
263.152009
263.151966
263.151923
263.151881
263.151840
263.151800
263.151761
263.151723
263.151685
263.151648
263.151612
263.151577
263.151542
263.151508
263.151475
263.151442
263.151410
263.151379
263.151349
263.151319
263.151289
263.151261
263.151232
263.151205
263.151178
263.151152
263.151126
263.151100
263.151076
263.151051
263.151028
263.151004
263.150981
263.150959
263.150937
263.150916
263.150895
263.150874
263.150854
263.150835
263.150815
263.150797
263.150778
263.150760
263.150742
263.150725
263.150708
263.150691
263.150675
263.150659
263.150644
263.150628
263.150613
263.150599
263.150584
263.150570
263.150557
263.150543
263.150530
263.150517
263.150504
263.150492
263.150480
263.150468
263.150456
263.150445
263.150434
263.150423
263.150412
263.150401
263.150391
263.150381
263.150371
263.150361
263.150352
263.150342
263.150333
263.150324
263.150315
263.150307
263.150298
263.150290
263.150282
263.150273
263.150266
263.150258
263.150250
263.150243
263.150235
263.150228
263.150221
263.150214
263.150207
263.150200
263.150194
263.150187
263.150181
263.150174
263.150168
263.150162
263.150156
263.150150
263.150144
263.150138
263.150133
263.150127
263.150121
263.150116
263.150110
263.150105
263.150099
263.150094
263.150089
263.150084
263.150079
263.150073
263.150068
263.150063
263.150058
263.150053
263.150048
263.150043
263.150039
263.150034
263.150029
263.150024
263.150019
263.150014
263.150010
263.150005
263.150000
        </DataArray>
      </PointData>
      <CellData>
      </CellData>
    </Piece>
  </UnstructuredGrid>
</VTKFile>
