<?xml version="1.0"?>
<VTKFile type="UnstructuredGrid" version="0.1" byte_order="LittleEndian">
  <UnstructuredGrid>
    <Piece NumberOfPoints="801" NumberOfCells="800">
      <Points>
        <DataArray type="Float32" NumberOfComponents="3" format="ascii">
0.000000 0.0 0.0
0.005000 0.0 0.0
0.010000 0.0 0.0
0.015000 0.0 0.0
0.020000 0.0 0.0
0.025000 0.0 0.0
0.030000 0.0 0.0
0.035000 0.0 0.0
0.040000 0.0 0.0
0.045000 0.0 0.0
0.050000 0.0 0.0
0.055000 0.0 0.0
0.060000 0.0 0.0
0.065000 0.0 0.0
0.070000 0.0 0.0
0.075000 0.0 0.0
0.080000 0.0 0.0
0.085000 0.0 0.0
0.090000 0.0 0.0
0.095000 0.0 0.0
0.100000 0.0 0.0
0.105000 0.0 0.0
0.110000 0.0 0.0
0.115000 0.0 0.0
0.120000 0.0 0.0
0.125000 0.0 0.0
0.130000 0.0 0.0
0.135000 0.0 0.0
0.140000 0.0 0.0
0.145000 0.0 0.0
0.150000 0.0 0.0
0.155000 0.0 0.0
0.160000 0.0 0.0
0.165000 0.0 0.0
0.170000 0.0 0.0
0.175000 0.0 0.0
0.180000 0.0 0.0
0.185000 0.0 0.0
0.190000 0.0 0.0
0.195000 0.0 0.0
0.200000 0.0 0.0
0.205000 0.0 0.0
0.210000 0.0 0.0
0.215000 0.0 0.0
0.220000 0.0 0.0
0.225000 0.0 0.0
0.230000 0.0 0.0
0.235000 0.0 0.0
0.240000 0.0 0.0
0.245000 0.0 0.0
0.250000 0.0 0.0
0.255000 0.0 0.0
0.260000 0.0 0.0
0.265000 0.0 0.0
0.270000 0.0 0.0
0.275000 0.0 0.0
0.280000 0.0 0.0
0.285000 0.0 0.0
0.290000 0.0 0.0
0.295000 0.0 0.0
0.300000 0.0 0.0
0.305000 0.0 0.0
0.310000 0.0 0.0
0.315000 0.0 0.0
0.320000 0.0 0.0
0.325000 0.0 0.0
0.330000 0.0 0.0
0.335000 0.0 0.0
0.340000 0.0 0.0
0.345000 0.0 0.0
0.350000 0.0 0.0
0.355000 0.0 0.0
0.360000 0.0 0.0
0.365000 0.0 0.0
0.370000 0.0 0.0
0.375000 0.0 0.0
0.380000 0.0 0.0
0.385000 0.0 0.0
0.390000 0.0 0.0
0.395000 0.0 0.0
0.400000 0.0 0.0
0.405000 0.0 0.0
0.410000 0.0 0.0
0.415000 0.0 0.0
0.420000 0.0 0.0
0.425000 0.0 0.0
0.430000 0.0 0.0
0.435000 0.0 0.0
0.440000 0.0 0.0
0.445000 0.0 0.0
0.450000 0.0 0.0
0.455000 0.0 0.0
0.460000 0.0 0.0
0.465000 0.0 0.0
0.470000 0.0 0.0
0.475000 0.0 0.0
0.480000 0.0 0.0
0.485000 0.0 0.0
0.490000 0.0 0.0
0.495000 0.0 0.0
0.500000 0.0 0.0
0.505000 0.0 0.0
0.510000 0.0 0.0
0.515000 0.0 0.0
0.520000 0.0 0.0
0.525000 0.0 0.0
0.530000 0.0 0.0
0.535000 0.0 0.0
0.540000 0.0 0.0
0.545000 0.0 0.0
0.550000 0.0 0.0
0.555000 0.0 0.0
0.560000 0.0 0.0
0.565000 0.0 0.0
0.570000 0.0 0.0
0.575000 0.0 0.0
0.580000 0.0 0.0
0.585000 0.0 0.0
0.590000 0.0 0.0
0.595000 0.0 0.0
0.600000 0.0 0.0
0.605000 0.0 0.0
0.610000 0.0 0.0
0.615000 0.0 0.0
0.620000 0.0 0.0
0.625000 0.0 0.0
0.630000 0.0 0.0
0.635000 0.0 0.0
0.640000 0.0 0.0
0.645000 0.0 0.0
0.650000 0.0 0.0
0.655000 0.0 0.0
0.660000 0.0 0.0
0.665000 0.0 0.0
0.670000 0.0 0.0
0.675000 0.0 0.0
0.680000 0.0 0.0
0.685000 0.0 0.0
0.690000 0.0 0.0
0.695000 0.0 0.0
0.700000 0.0 0.0
0.705000 0.0 0.0
0.710000 0.0 0.0
0.715000 0.0 0.0
0.720000 0.0 0.0
0.725000 0.0 0.0
0.730000 0.0 0.0
0.735000 0.0 0.0
0.740000 0.0 0.0
0.745000 0.0 0.0
0.750000 0.0 0.0
0.755000 0.0 0.0
0.760000 0.0 0.0
0.765000 0.0 0.0
0.770000 0.0 0.0
0.775000 0.0 0.0
0.780000 0.0 0.0
0.785000 0.0 0.0
0.790000 0.0 0.0
0.795000 0.0 0.0
0.800000 0.0 0.0
0.805000 0.0 0.0
0.810000 0.0 0.0
0.815000 0.0 0.0
0.820000 0.0 0.0
0.825000 0.0 0.0
0.830000 0.0 0.0
0.835000 0.0 0.0
0.840000 0.0 0.0
0.845000 0.0 0.0
0.850000 0.0 0.0
0.855000 0.0 0.0
0.860000 0.0 0.0
0.865000 0.0 0.0
0.870000 0.0 0.0
0.875000 0.0 0.0
0.880000 0.0 0.0
0.885000 0.0 0.0
0.890000 0.0 0.0
0.895000 0.0 0.0
0.900000 0.0 0.0
0.905000 0.0 0.0
0.910000 0.0 0.0
0.915000 0.0 0.0
0.920000 0.0 0.0
0.925000 0.0 0.0
0.930000 0.0 0.0
0.935000 0.0 0.0
0.940000 0.0 0.0
0.945000 0.0 0.0
0.950000 0.0 0.0
0.955000 0.0 0.0
0.960000 0.0 0.0
0.965000 0.0 0.0
0.970000 0.0 0.0
0.975000 0.0 0.0
0.980000 0.0 0.0
0.985000 0.0 0.0
0.990000 0.0 0.0
0.995000 0.0 0.0
1.000000 0.0 0.0
1.005000 0.0 0.0
1.010000 0.0 0.0
1.015000 0.0 0.0
1.020000 0.0 0.0
1.025000 0.0 0.0
1.030000 0.0 0.0
1.035000 0.0 0.0
1.040000 0.0 0.0
1.045000 0.0 0.0
1.050000 0.0 0.0
1.055000 0.0 0.0
1.060000 0.0 0.0
1.065000 0.0 0.0
1.070000 0.0 0.0
1.075000 0.0 0.0
1.080000 0.0 0.0
1.085000 0.0 0.0
1.090000 0.0 0.0
1.095000 0.0 0.0
1.100000 0.0 0.0
1.105000 0.0 0.0
1.110000 0.0 0.0
1.115000 0.0 0.0
1.120000 0.0 0.0
1.125000 0.0 0.0
1.130000 0.0 0.0
1.135000 0.0 0.0
1.140000 0.0 0.0
1.145000 0.0 0.0
1.150000 0.0 0.0
1.155000 0.0 0.0
1.160000 0.0 0.0
1.165000 0.0 0.0
1.170000 0.0 0.0
1.175000 0.0 0.0
1.180000 0.0 0.0
1.185000 0.0 0.0
1.190000 0.0 0.0
1.195000 0.0 0.0
1.200000 0.0 0.0
1.205000 0.0 0.0
1.210000 0.0 0.0
1.215000 0.0 0.0
1.220000 0.0 0.0
1.225000 0.0 0.0
1.230000 0.0 0.0
1.235000 0.0 0.0
1.240000 0.0 0.0
1.245000 0.0 0.0
1.250000 0.0 0.0
1.255000 0.0 0.0
1.260000 0.0 0.0
1.265000 0.0 0.0
1.270000 0.0 0.0
1.275000 0.0 0.0
1.280000 0.0 0.0
1.285000 0.0 0.0
1.290000 0.0 0.0
1.295000 0.0 0.0
1.300000 0.0 0.0
1.305000 0.0 0.0
1.310000 0.0 0.0
1.315000 0.0 0.0
1.320000 0.0 0.0
1.325000 0.0 0.0
1.330000 0.0 0.0
1.335000 0.0 0.0
1.340000 0.0 0.0
1.345000 0.0 0.0
1.350000 0.0 0.0
1.355000 0.0 0.0
1.360000 0.0 0.0
1.365000 0.0 0.0
1.370000 0.0 0.0
1.375000 0.0 0.0
1.380000 0.0 0.0
1.385000 0.0 0.0
1.390000 0.0 0.0
1.395000 0.0 0.0
1.400000 0.0 0.0
1.405000 0.0 0.0
1.410000 0.0 0.0
1.415000 0.0 0.0
1.420000 0.0 0.0
1.425000 0.0 0.0
1.430000 0.0 0.0
1.435000 0.0 0.0
1.440000 0.0 0.0
1.445000 0.0 0.0
1.450000 0.0 0.0
1.455000 0.0 0.0
1.460000 0.0 0.0
1.465000 0.0 0.0
1.470000 0.0 0.0
1.475000 0.0 0.0
1.480000 0.0 0.0
1.485000 0.0 0.0
1.490000 0.0 0.0
1.495000 0.0 0.0
1.500000 0.0 0.0
1.505000 0.0 0.0
1.510000 0.0 0.0
1.515000 0.0 0.0
1.520000 0.0 0.0
1.525000 0.0 0.0
1.530000 0.0 0.0
1.535000 0.0 0.0
1.540000 0.0 0.0
1.545000 0.0 0.0
1.550000 0.0 0.0
1.555000 0.0 0.0
1.560000 0.0 0.0
1.565000 0.0 0.0
1.570000 0.0 0.0
1.575000 0.0 0.0
1.580000 0.0 0.0
1.585000 0.0 0.0
1.590000 0.0 0.0
1.595000 0.0 0.0
1.600000 0.0 0.0
1.605000 0.0 0.0
1.610000 0.0 0.0
1.615000 0.0 0.0
1.620000 0.0 0.0
1.625000 0.0 0.0
1.630000 0.0 0.0
1.635000 0.0 0.0
1.640000 0.0 0.0
1.645000 0.0 0.0
1.650000 0.0 0.0
1.655000 0.0 0.0
1.660000 0.0 0.0
1.665000 0.0 0.0
1.670000 0.0 0.0
1.675000 0.0 0.0
1.680000 0.0 0.0
1.685000 0.0 0.0
1.690000 0.0 0.0
1.695000 0.0 0.0
1.700000 0.0 0.0
1.705000 0.0 0.0
1.710000 0.0 0.0
1.715000 0.0 0.0
1.720000 0.0 0.0
1.725000 0.0 0.0
1.730000 0.0 0.0
1.735000 0.0 0.0
1.740000 0.0 0.0
1.745000 0.0 0.0
1.750000 0.0 0.0
1.755000 0.0 0.0
1.760000 0.0 0.0
1.765000 0.0 0.0
1.770000 0.0 0.0
1.775000 0.0 0.0
1.780000 0.0 0.0
1.785000 0.0 0.0
1.790000 0.0 0.0
1.795000 0.0 0.0
1.800000 0.0 0.0
1.805000 0.0 0.0
1.810000 0.0 0.0
1.815000 0.0 0.0
1.820000 0.0 0.0
1.825000 0.0 0.0
1.830000 0.0 0.0
1.835000 0.0 0.0
1.840000 0.0 0.0
1.845000 0.0 0.0
1.850000 0.0 0.0
1.855000 0.0 0.0
1.860000 0.0 0.0
1.865000 0.0 0.0
1.870000 0.0 0.0
1.875000 0.0 0.0
1.880000 0.0 0.0
1.885000 0.0 0.0
1.890000 0.0 0.0
1.895000 0.0 0.0
1.900000 0.0 0.0
1.905000 0.0 0.0
1.910000 0.0 0.0
1.915000 0.0 0.0
1.920000 0.0 0.0
1.925000 0.0 0.0
1.930000 0.0 0.0
1.935000 0.0 0.0
1.940000 0.0 0.0
1.945000 0.0 0.0
1.950000 0.0 0.0
1.955000 0.0 0.0
1.960000 0.0 0.0
1.965000 0.0 0.0
1.970000 0.0 0.0
1.975000 0.0 0.0
1.980000 0.0 0.0
1.985000 0.0 0.0
1.990000 0.0 0.0
1.995000 0.0 0.0
2.000000 0.0 0.0
2.005000 0.0 0.0
2.010000 0.0 0.0
2.015000 0.0 0.0
2.020000 0.0 0.0
2.025000 0.0 0.0
2.030000 0.0 0.0
2.035000 0.0 0.0
2.040000 0.0 0.0
2.045000 0.0 0.0
2.050000 0.0 0.0
2.055000 0.0 0.0
2.060000 0.0 0.0
2.065000 0.0 0.0
2.070000 0.0 0.0
2.075000 0.0 0.0
2.080000 0.0 0.0
2.085000 0.0 0.0
2.090000 0.0 0.0
2.095000 0.0 0.0
2.100000 0.0 0.0
2.105000 0.0 0.0
2.110000 0.0 0.0
2.115000 0.0 0.0
2.120000 0.0 0.0
2.125000 0.0 0.0
2.130000 0.0 0.0
2.135000 0.0 0.0
2.140000 0.0 0.0
2.145000 0.0 0.0
2.150000 0.0 0.0
2.155000 0.0 0.0
2.160000 0.0 0.0
2.165000 0.0 0.0
2.170000 0.0 0.0
2.175000 0.0 0.0
2.180000 0.0 0.0
2.185000 0.0 0.0
2.190000 0.0 0.0
2.195000 0.0 0.0
2.200000 0.0 0.0
2.205000 0.0 0.0
2.210000 0.0 0.0
2.215000 0.0 0.0
2.220000 0.0 0.0
2.225000 0.0 0.0
2.230000 0.0 0.0
2.235000 0.0 0.0
2.240000 0.0 0.0
2.245000 0.0 0.0
2.250000 0.0 0.0
2.255000 0.0 0.0
2.260000 0.0 0.0
2.265000 0.0 0.0
2.270000 0.0 0.0
2.275000 0.0 0.0
2.280000 0.0 0.0
2.285000 0.0 0.0
2.290000 0.0 0.0
2.295000 0.0 0.0
2.300000 0.0 0.0
2.305000 0.0 0.0
2.310000 0.0 0.0
2.315000 0.0 0.0
2.320000 0.0 0.0
2.325000 0.0 0.0
2.330000 0.0 0.0
2.335000 0.0 0.0
2.340000 0.0 0.0
2.345000 0.0 0.0
2.350000 0.0 0.0
2.355000 0.0 0.0
2.360000 0.0 0.0
2.365000 0.0 0.0
2.370000 0.0 0.0
2.375000 0.0 0.0
2.380000 0.0 0.0
2.385000 0.0 0.0
2.390000 0.0 0.0
2.395000 0.0 0.0
2.400000 0.0 0.0
2.405000 0.0 0.0
2.410000 0.0 0.0
2.415000 0.0 0.0
2.420000 0.0 0.0
2.425000 0.0 0.0
2.430000 0.0 0.0
2.435000 0.0 0.0
2.440000 0.0 0.0
2.445000 0.0 0.0
2.450000 0.0 0.0
2.455000 0.0 0.0
2.460000 0.0 0.0
2.465000 0.0 0.0
2.470000 0.0 0.0
2.475000 0.0 0.0
2.480000 0.0 0.0
2.485000 0.0 0.0
2.490000 0.0 0.0
2.495000 0.0 0.0
2.500000 0.0 0.0
2.505000 0.0 0.0
2.510000 0.0 0.0
2.515000 0.0 0.0
2.520000 0.0 0.0
2.525000 0.0 0.0
2.530000 0.0 0.0
2.535000 0.0 0.0
2.540000 0.0 0.0
2.545000 0.0 0.0
2.550000 0.0 0.0
2.555000 0.0 0.0
2.560000 0.0 0.0
2.565000 0.0 0.0
2.570000 0.0 0.0
2.575000 0.0 0.0
2.580000 0.0 0.0
2.585000 0.0 0.0
2.590000 0.0 0.0
2.595000 0.0 0.0
2.600000 0.0 0.0
2.605000 0.0 0.0
2.610000 0.0 0.0
2.615000 0.0 0.0
2.620000 0.0 0.0
2.625000 0.0 0.0
2.630000 0.0 0.0
2.635000 0.0 0.0
2.640000 0.0 0.0
2.645000 0.0 0.0
2.650000 0.0 0.0
2.655000 0.0 0.0
2.660000 0.0 0.0
2.665000 0.0 0.0
2.670000 0.0 0.0
2.675000 0.0 0.0
2.680000 0.0 0.0
2.685000 0.0 0.0
2.690000 0.0 0.0
2.695000 0.0 0.0
2.700000 0.0 0.0
2.705000 0.0 0.0
2.710000 0.0 0.0
2.715000 0.0 0.0
2.720000 0.0 0.0
2.725000 0.0 0.0
2.730000 0.0 0.0
2.735000 0.0 0.0
2.740000 0.0 0.0
2.745000 0.0 0.0
2.750000 0.0 0.0
2.755000 0.0 0.0
2.760000 0.0 0.0
2.765000 0.0 0.0
2.770000 0.0 0.0
2.775000 0.0 0.0
2.780000 0.0 0.0
2.785000 0.0 0.0
2.790000 0.0 0.0
2.795000 0.0 0.0
2.800000 0.0 0.0
2.805000 0.0 0.0
2.810000 0.0 0.0
2.815000 0.0 0.0
2.820000 0.0 0.0
2.825000 0.0 0.0
2.830000 0.0 0.0
2.835000 0.0 0.0
2.840000 0.0 0.0
2.845000 0.0 0.0
2.850000 0.0 0.0
2.855000 0.0 0.0
2.860000 0.0 0.0
[...]
      <PointData Scalars="Temperature">
        <DataArray type="Float32" Name="Temperature" format="ascii">
308.150000
307.176266
306.202745
305.229649
304.257190
303.285580
302.315029
301.345749
300.377949
299.411837
298.447622
297.485509
296.525705
295.568411
294.613830
293.662162
292.713605
291.768356
290.826607
289.888552
288.954378
288.024272
287.098419
286.176999
285.260191
284.348168
283.441104
282.539166
281.642519
280.751325
279.865744
278.985929
278.112032
277.244202
276.382585
275.527333
274.679180
273.869393
273.347590
273.106867
272.963622
272.858934
272.773644
272.699678
272.632962
272.571184
272.512916
272.457223
272.403465
272.351188
272.300062
272.249843
272.200346
272.151432
272.102992
272.054941
272.007216
271.959765
271.912547
271.865531
271.818692
271.772011
271.725473
271.679064
271.632777
271.586603
271.540537
271.494576
271.448714
271.402951
271.357285
271.311714
271.266238
271.220857
271.175570
271.130378
271.085281
271.040279
270.995374
270.950565
270.905855
270.861242
270.816729
270.772316
270.728005
270.683795
270.639688
270.595686
270.551788
270.507997
270.464312
270.420735
270.377267
270.333909
270.290661
270.247525
270.204502
270.161592
270.118797
270.076118
270.033554
269.991108
269.948780
269.906571
269.864482
269.822514
269.780667
269.738943
269.697342
269.655865
269.614513
269.573287
269.532188
269.491216
269.450372
269.409658
269.369072
269.328618
269.288294
269.248103
269.208044
269.168119
269.128327
269.088671
269.049150
269.009765
268.970517
268.931406
268.892434
268.853600
268.814906
268.776352
268.737938
268.699665
268.661534
268.623546
268.585700
268.547998
268.510440
268.473027
268.435758
268.398635
268.361658
268.324828
268.288145
268.251609
268.215221
268.178981
268.142891
268.106949
268.071158
268.035516
268.000025
267.964685
267.929496
267.894458
267.859573
267.824840
267.790259
267.755832
267.721558
267.687437
267.653470
267.619658
267.585999
267.552496
267.519147
267.485954
267.452916
267.420034
267.387307
267.354737
267.322323
267.290065
267.257964
267.226020
267.194232
267.162602
267.131129
267.099813
267.068655
267.037654
267.006810
266.976125
266.945597
266.915227
266.885015
266.854961
266.825065
266.795327
266.765747
266.736325
266.707061
266.677955
266.649007
266.620217
266.591585
266.563111
266.534795
266.506636
266.478635
266.450792
266.423107
266.395578
266.368208
266.340994
266.313938
266.287038
266.260295
266.233709
266.207280
266.181007
266.154890
266.128929
266.103123
266.077474
266.051980
266.026641
266.001457
265.976428
265.951553
265.926832
265.902266
265.877853
265.853594
265.829488
265.805535
265.781735
265.758087
265.734591
265.711247
265.688054
265.665013
265.642122
265.619382
265.596792
265.574351
265.552060
265.529919
265.507925
265.486081
265.464384
265.442834
265.421432
265.400177
265.379068
265.358105
265.337288
265.316615
265.296088
265.275705
265.255465
265.235369
265.215416
265.195606
265.175938
265.156411
265.137025
265.117780
265.098675
265.079710
265.060885
265.042198
265.023649
265.005238
264.986964
264.968827
264.950827
264.932962
264.915232
264.897637
264.880176
264.862849
264.845655
264.828593
264.811664
264.794866
264.778199
264.761663
264.745256
264.728978
264.712830
264.696809
264.680916
264.665151
264.649511
264.633998
264.618610
264.603347
264.588207
264.573192
264.558299
264.543529
264.528881
264.514354
264.499947
264.485661
264.471494
264.457446
264.443516
264.429704
264.416009
264.402431
264.388968
264.375620
264.362387
264.349268
264.336263
264.323370
264.310589
264.297920
264.285362
264.272914
264.260576
264.248347
264.236227
264.224214
264.212308
264.200509
264.188816
264.177229
264.165746
264.154367
264.143091
264.131919
264.120848
264.109880
264.099012
264.088244
264.077577
264.067008
264.056538
264.046166
264.035891
264.025712
264.015630
264.005642
263.995750
263.985952
263.976247
263.966635
263.957115
263.947687
263.938350
263.929103
263.919946
263.910878
263.901899
263.893008
263.884204
263.875486
263.866855
263.858309
263.849848
263.841472
263.833179
263.824969
263.816842
263.808796
263.800832
263.792948
263.785144
263.777420
263.769774
263.762207
263.754718
263.747306
263.739970
263.732710
263.725525
263.718415
263.711380
263.704418
263.697528
263.690712
263.683967
263.677293
263.670691
263.664158
263.657695
263.651301
263.644975
263.638718
263.632527
263.626404
263.620346
263.614355
263.608428
263.602567
263.596769
263.591035
263.585363
263.579754
263.574208
263.568722
263.563297
263.557933
263.552628
263.547383
263.542197
263.537068
263.531998
263.526985
263.522028
263.517128
263.512283
263.507494
263.502759
263.498078
263.493452
263.488878
263.484357
263.479889
263.475472
263.471106
263.466792
263.462527
263.458313
263.454148
263.450032
263.445964
263.441945
263.437973
263.434048
263.430169
263.426337
263.422551
263.418810
263.415114
263.411462
263.407855
263.404291
263.400770
263.397292
263.393856
263.390462
263.387109
263.383797
263.380527
263.377296
263.374105
263.370953
263.367841
263.364767
263.361731
263.358734
263.355773
263.352850
263.349963
263.347113
263.344298
263.341519
263.338775
263.336066
263.333391
263.330751
263.328144
263.325570
263.323029
263.320521
263.318045
263.315601
263.313189
263.310808
263.308458
263.306138
263.303849
263.301589
263.299359
263.297158
263.294986
263.292843
263.290728
263.288641
263.286581
263.284549
263.282544
263.280565
263.278613
263.276687
263.274787
263.272912
263.271063
263.269238
263.267438
263.265663
263.263912
263.262184
263.260480
263.258799
263.257141
263.255506
263.253893
263.252302
263.250734
263.249187
263.247661
263.246156
263.244673
263.243210
263.241767
263.240345
263.238942
263.237559
263.236196
263.234851
263.233526
263.232219
263.230931
263.229661
263.228409
263.227175
263.225958
263.224759
263.223577
263.222412
263.221263
263.220132
263.219016
263.217917
263.216833
263.215765
263.214713
263.213676
263.212654
263.211647
263.210654
263.209677
263.208713
263.207764
263.206829
263.205907
263.204999
263.204105
263.203223
263.202355
263.201500
263.200658
263.199828
263.199010
263.198205
263.197412
263.196631
263.195861
263.195103
263.194357
263.193622
263.192898
263.192185
263.191483
263.190792
263.190111
263.189440
263.188780
263.188130
263.187490
263.186860
263.186240
263.185629
263.185027
263.184435
263.183852
263.183279
263.182714
263.182158
263.181610
263.181072
263.180541
263.180019
263.179505
263.179000
263.178502
263.178012
263.177530
263.177056
263.176589
263.176129
263.175677
263.175232
263.174794
263.174364
263.173940
263.173523
263.173112
263.172708
263.172311
263.171920
263.171536
263.171158
263.170786
263.170419
263.170059
263.169705
263.169357
263.169014
263.168677
263.168345
263.168019
263.167699
263.167383
263.167073
263.166768
263.166468
263.166173
263.165883
263.165597
263.165317
263.165041
263.164770
263.164503
263.164241
263.163983
263.163729
263.163480
263.163235
263.162994
263.162757
263.162524
263.162296
263.162071
263.161850
263.161632
263.161418
263.161208
263.161002
263.160799
263.160600
263.160404
263.160211
263.160022
263.159836
263.159653
263.159474
263.159297
263.159124
263.158953
263.158786
263.158621
263.158460
263.158301
263.158145
263.157991
263.157841
263.157693
263.157547
263.157405
263.157264
263.157126
263.156991
263.156858
263.156727
263.156599
263.156473
263.156349
263.156228
263.156108
263.155991
263.155876
263.155763
263.155651
263.155542
263.155435
263.155330
263.155227
263.155125
263.155026
263.154928
263.154832
263.154737
263.154645
263.154554
263.154464
263.154377
263.154291
263.154206
263.154123
263.154042
263.153962
263.153883
263.153806
263.153731
263.153656
263.153583
263.153512
263.153442
263.153373
263.153305
263.153238
263.153173
263.153109
263.153046
263.152985
263.152924
263.152865
263.152806
263.152749
263.152693
263.152638
263.152583
263.152530
263.152478
263.152427
263.152377
263.152327
263.152279
263.152231
263.152185
263.152139
263.152094
263.152050
263.152007
263.151964
263.151923
263.151882
263.151841
263.151802
263.151763
263.151725
263.151688
263.151651
263.151615
263.151580
263.151545
263.151511
263.151478
263.151445
263.151413
263.151381
263.151350
263.151320
263.151290
263.151260
263.151231
263.151203
263.151175
263.151148
263.151121
263.151094
263.151068
263.151043
263.151017
263.150993
263.150968
263.150945
263.150921
263.150898
263.150875
263.150853
263.150831
263.150809
263.150788
263.150767
263.150747
263.150726
263.150706
263.150687
263.150667
263.150648
263.150630
263.150611
263.150593
263.150575
263.150557
263.150540
263.150522
263.150505
263.150488
263.150472
263.150455
263.150439
263.150423
263.150407
263.150392
263.150376
263.150361
263.150346
263.150331
263.150316
263.150301
263.150287
263.150272
263.150258
263.150244
263.150229
263.150215
263.150201
263.150188
263.150174
263.150160
263.150147
263.150133
263.150120
263.150106
263.150093
263.150079
263.150066
263.150053
263.150040
263.150026
263.150013
263.150000
        </DataArray>
      </PointData>
      <CellData>
      </CellData>
    </Piece>
  </UnstructuredGrid>
</VTKFile>
