<?xml version="1.0"?>
<VTKFile type="UnstructuredGrid" version="0.1" byte_order="LittleEndian">
  <UnstructuredGrid>
    <Piece NumberOfPoints="801" NumberOfCells="800">
      <Points>
        <DataArray type="Float32" NumberOfComponents="3" format="ascii">
0.000000 0.0 0.0
0.005000 0.0 0.0
0.010000 0.0 0.0
0.015000 0.0 0.0
0.020000 0.0 0.0
0.025000 0.0 0.0
0.030000 0.0 0.0
0.035000 0.0 0.0
0.040000 0.0 0.0
0.045000 0.0 0.0
0.050000 0.0 0.0
0.055000 0.0 0.0
0.060000 0.0 0.0
0.065000 0.0 0.0
0.070000 0.0 0.0
0.075000 0.0 0.0
0.080000 0.0 0.0
0.085000 0.0 0.0
0.090000 0.0 0.0
0.095000 0.0 0.0
0.100000 0.0 0.0
0.105000 0.0 0.0
0.110000 0.0 0.0
0.115000 0.0 0.0
0.120000 0.0 0.0
0.125000 0.0 0.0
0.130000 0.0 0.0
0.135000 0.0 0.0
0.140000 0.0 0.0
0.145000 0.0 0.0
0.150000 0.0 0.0
0.155000 0.0 0.0
0.160000 0.0 0.0
0.165000 0.0 0.0
0.170000 0.0 0.0
0.175000 0.0 0.0
0.180000 0.0 0.0
0.185000 0.0 0.0
0.190000 0.0 0.0
0.195000 0.0 0.0
0.200000 0.0 0.0
0.205000 0.0 0.0
0.210000 0.0 0.0
0.215000 0.0 0.0
0.220000 0.0 0.0
0.225000 0.0 0.0
0.230000 0.0 0.0
0.235000 0.0 0.0
0.240000 0.0 0.0
0.245000 0.0 0.0
0.250000 0.0 0.0
0.255000 0.0 0.0
0.260000 0.0 0.0
0.265000 0.0 0.0
0.270000 0.0 0.0
0.275000 0.0 0.0
0.280000 0.0 0.0
0.285000 0.0 0.0
0.290000 0.0 0.0
0.295000 0.0 0.0
0.300000 0.0 0.0
0.305000 0.0 0.0
0.310000 0.0 0.0
0.315000 0.0 0.0
0.320000 0.0 0.0
0.325000 0.0 0.0
0.330000 0.0 0.0
0.335000 0.0 0.0
0.340000 0.0 0.0
0.345000 0.0 0.0
0.350000 0.0 0.0
0.355000 0.0 0.0
0.360000 0.0 0.0
0.365000 0.0 0.0
0.370000 0.0 0.0
0.375000 0.0 0.0
0.380000 0.0 0.0
0.385000 0.0 0.0
0.390000 0.0 0.0
0.395000 0.0 0.0
0.400000 0.0 0.0
0.405000 0.0 0.0
0.410000 0.0 0.0
0.415000 0.0 0.0
0.420000 0.0 0.0
0.425000 0.0 0.0
0.430000 0.0 0.0
0.435000 0.0 0.0
0.440000 0.0 0.0
0.445000 0.0 0.0
0.450000 0.0 0.0
0.455000 0.0 0.0
0.460000 0.0 0.0
0.465000 0.0 0.0
0.470000 0.0 0.0
0.475000 0.0 0.0
0.480000 0.0 0.0
0.485000 0.0 0.0
0.490000 0.0 0.0
0.495000 0.0 0.0
0.500000 0.0 0.0
0.505000 0.0 0.0
0.510000 0.0 0.0
0.515000 0.0 0.0
0.520000 0.0 0.0
0.525000 0.0 0.0
0.530000 0.0 0.0
0.535000 0.0 0.0
0.540000 0.0 0.0
0.545000 0.0 0.0
0.550000 0.0 0.0
0.555000 0.0 0.0
0.560000 0.0 0.0
0.565000 0.0 0.0
0.570000 0.0 0.0
0.575000 0.0 0.0
0.580000 0.0 0.0
0.585000 0.0 0.0
0.590000 0.0 0.0
0.595000 0.0 0.0
0.600000 0.0 0.0
0.605000 0.0 0.0
0.610000 0.0 0.0
0.615000 0.0 0.0
0.620000 0.0 0.0
0.625000 0.0 0.0
0.630000 0.0 0.0
0.635000 0.0 0.0
0.640000 0.0 0.0
0.645000 0.0 0.0
0.650000 0.0 0.0
0.655000 0.0 0.0
0.660000 0.0 0.0
0.665000 0.0 0.0
0.670000 0.0 0.0
0.675000 0.0 0.0
0.680000 0.0 0.0
0.685000 0.0 0.0
0.690000 0.0 0.0
0.695000 0.0 0.0
0.700000 0.0 0.0
0.705000 0.0 0.0
0.710000 0.0 0.0
0.715000 0.0 0.0
0.720000 0.0 0.0
0.725000 0.0 0.0
0.730000 0.0 0.0
0.735000 0.0 0.0
0.740000 0.0 0.0
0.745000 0.0 0.0
0.750000 0.0 0.0
0.755000 0.0 0.0
0.760000 0.0 0.0
0.765000 0.0 0.0
0.770000 0.0 0.0
0.775000 0.0 0.0
0.780000 0.0 0.0
0.785000 0.0 0.0
0.790000 0.0 0.0
0.795000 0.0 0.0
0.800000 0.0 0.0
0.805000 0.0 0.0
0.810000 0.0 0.0
0.815000 0.0 0.0
0.820000 0.0 0.0
0.825000 0.0 0.0
0.830000 0.0 0.0
0.835000 0.0 0.0
0.840000 0.0 0.0
0.845000 0.0 0.0
0.850000 0.0 0.0
0.855000 0.0 0.0
0.860000 0.0 0.0
0.865000 0.0 0.0
0.870000 0.0 0.0
0.875000 0.0 0.0
0.880000 0.0 0.0
0.885000 0.0 0.0
0.890000 0.0 0.0
0.895000 0.0 0.0
0.900000 0.0 0.0
0.905000 0.0 0.0
0.910000 0.0 0.0
0.915000 0.0 0.0
0.920000 0.0 0.0
0.925000 0.0 0.0
0.930000 0.0 0.0
0.935000 0.0 0.0
0.940000 0.0 0.0
0.945000 0.0 0.0
0.950000 0.0 0.0
0.955000 0.0 0.0
0.960000 0.0 0.0
0.965000 0.0 0.0
0.970000 0.0 0.0
0.975000 0.0 0.0
0.980000 0.0 0.0
0.985000 0.0 0.0
0.990000 0.0 0.0
0.995000 0.0 0.0
1.000000 0.0 0.0
1.005000 0.0 0.0
1.010000 0.0 0.0
1.015000 0.0 0.0
1.020000 0.0 0.0
1.025000 0.0 0.0
1.030000 0.0 0.0
1.035000 0.0 0.0
1.040000 0.0 0.0
1.045000 0.0 0.0
1.050000 0.0 0.0
1.055000 0.0 0.0
1.060000 0.0 0.0
1.065000 0.0 0.0
1.070000 0.0 0.0
1.075000 0.0 0.0
1.080000 0.0 0.0
1.085000 0.0 0.0
1.090000 0.0 0.0
1.095000 0.0 0.0
1.100000 0.0 0.0
1.105000 0.0 0.0
1.110000 0.0 0.0
1.115000 0.0 0.0
1.120000 0.0 0.0
1.125000 0.0 0.0
1.130000 0.0 0.0
1.135000 0.0 0.0
1.140000 0.0 0.0
1.145000 0.0 0.0
1.150000 0.0 0.0
1.155000 0.0 0.0
1.160000 0.0 0.0
1.165000 0.0 0.0
1.170000 0.0 0.0
1.175000 0.0 0.0
1.180000 0.0 0.0
1.185000 0.0 0.0
1.190000 0.0 0.0
1.195000 0.0 0.0
1.200000 0.0 0.0
1.205000 0.0 0.0
1.210000 0.0 0.0
1.215000 0.0 0.0
1.220000 0.0 0.0
1.225000 0.0 0.0
1.230000 0.0 0.0
1.235000 0.0 0.0
1.240000 0.0 0.0
1.245000 0.0 0.0
1.250000 0.0 0.0
1.255000 0.0 0.0
1.260000 0.0 0.0
1.265000 0.0 0.0
1.270000 0.0 0.0
1.275000 0.0 0.0
1.280000 0.0 0.0
1.285000 0.0 0.0
1.290000 0.0 0.0
1.295000 0.0 0.0
1.300000 0.0 0.0
1.305000 0.0 0.0
1.310000 0.0 0.0
1.315000 0.0 0.0
1.320000 0.0 0.0
1.325000 0.0 0.0
1.330000 0.0 0.0
1.335000 0.0 0.0
1.340000 0.0 0.0
1.345000 0.0 0.0
1.350000 0.0 0.0
1.355000 0.0 0.0
1.360000 0.0 0.0
1.365000 0.0 0.0
1.370000 0.0 0.0
1.375000 0.0 0.0
1.380000 0.0 0.0
1.385000 0.0 0.0
1.390000 0.0 0.0
1.395000 0.0 0.0
1.400000 0.0 0.0
1.405000 0.0 0.0
1.410000 0.0 0.0
1.415000 0.0 0.0
1.420000 0.0 0.0
1.425000 0.0 0.0
1.430000 0.0 0.0
1.435000 0.0 0.0
1.440000 0.0 0.0
1.445000 0.0 0.0
1.450000 0.0 0.0
1.455000 0.0 0.0
1.460000 0.0 0.0
1.465000 0.0 0.0
1.470000 0.0 0.0
1.475000 0.0 0.0
1.480000 0.0 0.0
1.485000 0.0 0.0
1.490000 0.0 0.0
1.495000 0.0 0.0
1.500000 0.0 0.0
1.505000 0.0 0.0
1.510000 0.0 0.0
1.515000 0.0 0.0
1.520000 0.0 0.0
1.525000 0.0 0.0
1.530000 0.0 0.0
1.535000 0.0 0.0
1.540000 0.0 0.0
1.545000 0.0 0.0
1.550000 0.0 0.0
1.555000 0.0 0.0
1.560000 0.0 0.0
1.565000 0.0 0.0
1.570000 0.0 0.0
1.575000 0.0 0.0
1.580000 0.0 0.0
1.585000 0.0 0.0
1.590000 0.0 0.0
1.595000 0.0 0.0
1.600000 0.0 0.0
1.605000 0.0 0.0
1.610000 0.0 0.0
1.615000 0.0 0.0
1.620000 0.0 0.0
1.625000 0.0 0.0
1.630000 0.0 0.0
1.635000 0.0 0.0
1.640000 0.0 0.0
1.645000 0.0 0.0
1.650000 0.0 0.0
1.655000 0.0 0.0
1.660000 0.0 0.0
1.665000 0.0 0.0
1.670000 0.0 0.0
1.675000 0.0 0.0
1.680000 0.0 0.0
1.685000 0.0 0.0
1.690000 0.0 0.0
1.695000 0.0 0.0
1.700000 0.0 0.0
1.705000 0.0 0.0
1.710000 0.0 0.0
1.715000 0.0 0.0
1.720000 0.0 0.0
1.725000 0.0 0.0
1.730000 0.0 0.0
1.735000 0.0 0.0
1.740000 0.0 0.0
1.745000 0.0 0.0
1.750000 0.0 0.0
1.755000 0.0 0.0
1.760000 0.0 0.0
1.765000 0.0 0.0
1.770000 0.0 0.0
1.775000 0.0 0.0
1.780000 0.0 0.0
1.785000 0.0 0.0
1.790000 0.0 0.0
1.795000 0.0 0.0
1.800000 0.0 0.0
1.805000 0.0 0.0
1.810000 0.0 0.0
1.815000 0.0 0.0
1.820000 0.0 0.0
1.825000 0.0 0.0
1.830000 0.0 0.0
1.835000 0.0 0.0
1.840000 0.0 0.0
1.845000 0.0 0.0
1.850000 0.0 0.0
1.855000 0.0 0.0
1.860000 0.0 0.0
1.865000 0.0 0.0
1.870000 0.0 0.0
1.875000 0.0 0.0
1.880000 0.0 0.0
1.885000 0.0 0.0
1.890000 0.0 0.0
1.895000 0.0 0.0
1.900000 0.0 0.0
1.905000 0.0 0.0
1.910000 0.0 0.0
1.915000 0.0 0.0
1.920000 0.0 0.0
1.925000 0.0 0.0
1.930000 0.0 0.0
1.935000 0.0 0.0
1.940000 0.0 0.0
1.945000 0.0 0.0
1.950000 0.0 0.0
1.955000 0.0 0.0
1.960000 0.0 0.0
1.965000 0.0 0.0
1.970000 0.0 0.0
1.975000 0.0 0.0
1.980000 0.0 0.0
1.985000 0.0 0.0
1.990000 0.0 0.0
1.995000 0.0 0.0
2.000000 0.0 0.0
2.005000 0.0 0.0
2.010000 0.0 0.0
2.015000 0.0 0.0
2.020000 0.0 0.0
2.025000 0.0 0.0
2.030000 0.0 0.0
2.035000 0.0 0.0
2.040000 0.0 0.0
2.045000 0.0 0.0
2.050000 0.0 0.0
2.055000 0.0 0.0
2.060000 0.0 0.0
2.065000 0.0 0.0
2.070000 0.0 0.0
2.075000 0.0 0.0
2.080000 0.0 0.0
2.085000 0.0 0.0
2.090000 0.0 0.0
2.095000 0.0 0.0
2.100000 0.0 0.0
2.105000 0.0 0.0
2.110000 0.0 0.0
2.115000 0.0 0.0
2.120000 0.0 0.0
2.125000 0.0 0.0
2.130000 0.0 0.0
2.135000 0.0 0.0
2.140000 0.0 0.0
2.145000 0.0 0.0
2.150000 0.0 0.0
2.155000 0.0 0.0
2.160000 0.0 0.0
2.165000 0.0 0.0
2.170000 0.0 0.0
2.175000 0.0 0.0
2.180000 0.0 0.0
2.185000 0.0 0.0
2.190000 0.0 0.0
2.195000 0.0 0.0
2.200000 0.0 0.0
2.205000 0.0 0.0
2.210000 0.0 0.0
2.215000 0.0 0.0
2.220000 0.0 0.0
2.225000 0.0 0.0
2.230000 0.0 0.0
2.235000 0.0 0.0
2.240000 0.0 0.0
2.245000 0.0 0.0
2.250000 0.0 0.0
2.255000 0.0 0.0
2.260000 0.0 0.0
2.265000 0.0 0.0
2.270000 0.0 0.0
2.275000 0.0 0.0
2.280000 0.0 0.0
2.285000 0.0 0.0
2.290000 0.0 0.0
2.295000 0.0 0.0
2.300000 0.0 0.0
2.305000 0.0 0.0
2.310000 0.0 0.0
2.315000 0.0 0.0
2.320000 0.0 0.0
2.325000 0.0 0.0
2.330000 0.0 0.0
2.335000 0.0 0.0
2.340000 0.0 0.0
2.345000 0.0 0.0
2.350000 0.0 0.0
2.355000 0.0 0.0
2.360000 0.0 0.0
2.365000 0.0 0.0
2.370000 0.0 0.0
2.375000 0.0 0.0
2.380000 0.0 0.0
2.385000 0.0 0.0
2.390000 0.0 0.0
2.395000 0.0 0.0
2.400000 0.0 0.0
2.405000 0.0 0.0
2.410000 0.0 0.0
2.415000 0.0 0.0
2.420000 0.0 0.0
2.425000 0.0 0.0
2.430000 0.0 0.0
2.435000 0.0 0.0
2.440000 0.0 0.0
2.445000 0.0 0.0
2.450000 0.0 0.0
2.455000 0.0 0.0
2.460000 0.0 0.0
2.465000 0.0 0.0
2.470000 0.0 0.0
2.475000 0.0 0.0
2.480000 0.0 0.0
2.485000 0.0 0.0
2.490000 0.0 0.0
2.495000 0.0 0.0
2.500000 0.0 0.0
2.505000 0.0 0.0
2.510000 0.0 0.0
2.515000 0.0 0.0
2.520000 0.0 0.0
2.525000 0.0 0.0
2.530000 0.0 0.0
2.535000 0.0 0.0
2.540000 0.0 0.0
2.545000 0.0 0.0
2.550000 0.0 0.0
2.555000 0.0 0.0
2.560000 0.0 0.0
2.565000 0.0 0.0
2.570000 0.0 0.0
2.575000 0.0 0.0
2.580000 0.0 0.0
2.585000 0.0 0.0
2.590000 0.0 0.0
2.595000 0.0 0.0
2.600000 0.0 0.0
2.605000 0.0 0.0
2.610000 0.0 0.0
2.615000 0.0 0.0
2.620000 0.0 0.0
2.625000 0.0 0.0
2.630000 0.0 0.0
2.635000 0.0 0.0
2.640000 0.0 0.0
2.645000 0.0 0.0
2.650000 0.0 0.0
2.655000 0.0 0.0
2.660000 0.0 0.0
2.665000 0.0 0.0
2.670000 0.0 0.0
2.675000 0.0 0.0
2.680000 0.0 0.0
2.685000 0.0 0.0
2.690000 0.0 0.0
2.695000 0.0 0.0
2.700000 0.0 0.0
2.705000 0.0 0.0
2.710000 0.0 0.0
2.715000 0.0 0.0
2.720000 0.0 0.0
2.725000 0.0 0.0
2.730000 0.0 0.0
2.735000 0.0 0.0
2.740000 0.0 0.0
2.745000 0.0 0.0
2.750000 0.0 0.0
2.755000 0.0 0.0
2.760000 0.0 0.0
2.765000 0.0 0.0
2.770000 0.0 0.0
2.775000 0.0 0.0
2.780000 0.0 0.0
2.785000 0.0 0.0
2.790000 0.0 0.0
2.795000 0.0 0.0
2.800000 0.0 0.0
2.805000 0.0 0.0
2.810000 0.0 0.0
2.815000 0.0 0.0
2.820000 0.0 0.0
2.825000 0.0 0.0
2.830000 0.0 0.0
2.835000 0.0 0.0
2.840000 0.0 0.0
2.845000 0.0 0.0
2.850000 0.0 0.0
2.855000 0.0 0.0
2.860000 0.0 0.0
[...]
      <PointData Scalars="Temperature">
        <DataArray type="Float32" Name="Temperature" format="ascii">
308.150000
307.260922
306.372006
305.483416
304.595313
303.707859
302.821216
301.935546
301.051009
300.167765
299.285974
298.405794
297.527384
296.650899
295.776497
294.904331
294.034555
293.167322
292.302783
291.441087
290.582383
289.726816
288.874533
288.025676
287.180387
286.338806
285.501071
284.667317
283.837679
283.012289
282.191275
281.374766
280.562887
279.755759
278.953501
278.156232
277.364064
276.577108
275.795472
275.019354
274.253266
273.592464
273.241584
273.059977
272.939895
272.847694
272.770739
272.703166
272.641827
272.584854
272.531057
272.479638
272.430036
272.381850
272.334780
272.288602
272.243144
272.198272
272.153883
272.109894
272.066240
272.022869
271.979739
271.936817
271.894076
271.851495
271.809056
271.766746
271.724552
271.682467
271.640482
271.598593
271.556795
271.515084
271.473457
271.431913
271.390450
271.349066
271.307761
271.266535
271.225387
271.184317
271.143325
271.102412
271.061578
271.020822
270.980147
270.939552
270.899037
270.858604
270.818253
270.777985
270.737800
270.697699
270.657683
270.617752
270.577908
270.538150
270.498480
270.458899
270.419406
270.380003
270.340691
270.301470
270.262341
270.223304
270.184361
270.145512
270.106757
270.068098
270.029534
269.991067
269.952698
269.914427
269.876254
269.838181
269.800207
269.762334
269.724562
269.686892
269.649325
269.611860
269.574499
269.537242
269.500090
269.463044
269.426103
269.389269
269.352542
269.315922
269.279411
269.243009
269.206715
269.170532
269.134459
269.098496
269.062645
269.026906
268.991279
268.955765
268.920364
268.885077
268.849905
268.814846
268.779903
268.745076
268.710365
268.675770
268.641292
268.606931
268.572688
268.538563
268.504556
268.470669
268.436900
268.403252
268.369723
268.336315
268.303027
268.269861
268.236816
268.203893
268.171092
268.138413
268.105857
268.073424
268.041114
268.008928
267.976866
267.944928
267.913114
267.881425
267.849862
267.818423
267.787110
267.755922
267.724861
267.693925
267.663116
267.632434
267.601878
267.571450
267.541148
267.510974
267.480927
267.451008
267.421217
267.391554
267.362019
267.332612
267.303334
267.274184
267.245163
267.216271
267.187508
267.158874
267.130368
267.101992
267.073746
267.045628
267.017640
266.989782
266.962053
266.934453
266.906983
266.879643
266.852433
266.825352
266.798401
266.771580
266.744888
266.718327
266.691895
266.665592
266.639420
266.613377
266.587464
266.561680
266.536026
266.510502
266.485107
266.459841
266.434705
266.409698
266.384820
266.360071
266.335452
266.310961
266.286599
266.262366
266.238261
266.214285
266.190437
266.166718
266.143127
266.119663
266.096328
266.073120
266.050039
266.027086
266.004261
265.981562
265.958990
265.936545
265.914226
265.892034
265.869967
265.848027
265.826212
265.804523
265.782959
265.761520
265.740206
265.719016
265.697951
265.677010
265.656193
265.635500
265.614930
265.594483
265.574159
265.553957
265.533878
265.513922
265.494086
265.474373
265.454781
265.435309
265.415958
265.396728
265.377618
265.358627
265.339756
265.321004
265.302371
265.283857
265.265460
265.247182
265.229021
265.210977
265.193050
265.175240
265.157546
265.139968
265.122505
265.105157
265.087924
265.070806
265.053802
265.036911
265.020134
265.003470
264.986918
264.970478
264.954151
264.937935
264.921830
264.905835
264.889951
264.874177
264.858512
264.842957
264.827510
264.812172
264.796941
264.781819
264.766803
264.751894
264.737091
264.722394
264.707802
264.693316
264.678934
264.664657
264.650483
264.636412
264.622445
264.608580
264.594817
264.581155
264.567595
264.554136
264.540777
264.527518
264.514358
264.501298
264.488336
264.475472
264.462706
264.450037
264.437464
264.424989
264.412609
264.400324
264.388135
264.376040
264.364039
264.352132
264.340318
264.328596
264.316967
264.305430
264.293984
264.282629
264.271364
264.260190
264.249105
264.238109
264.227201
264.216382
264.205650
264.195006
264.184448
264.173977
264.163591
264.153291
264.143076
264.132945
264.122898
264.112934
264.103054
264.093256
264.083540
264.073906
264.064353
264.054881
264.045489
264.036177
264.026944
264.017790
264.008714
263.999716
263.990796
263.981953
263.973186
263.964496
263.955881
263.947341
263.938876
263.930485
263.922168
263.913924
263.905753
263.897655
263.889628
263.881673
263.873789
263.865976
263.858233
263.850559
263.842955
263.835420
263.827953
263.820553
263.813222
263.805957
263.798758
263.791626
263.784560
263.777559
263.770622
263.763750
263.756942
263.750197
263.743515
263.736896
263.730339
263.723844
263.717410
263.711037
263.704724
263.698471
263.692278
263.686144
263.680069
263.674052
263.668092
263.662191
263.656346
263.650558
263.644826
263.639150
263.633529
263.627964
263.622452
263.616995
263.611592
263.606242
263.600945
263.595700
263.590508
263.585367
263.580277
263.575239
263.570251
263.565313
263.560425
263.555586
263.550796
263.546055
263.541362
263.536717
263.532119
263.527568
263.523064
263.518606
263.514194
263.509828
263.505506
263.501230
263.496998
263.492810
263.488666
263.484565
263.480507
263.476492
263.472519
263.468588
263.464698
263.460850
263.457042
263.453275
263.449548
263.445861
263.442214
263.438605
263.435036
263.431505
263.428012
263.424556
263.421139
263.417758
263.414414
263.411107
263.407836
263.404600
263.401400
263.398236
263.395106
263.392011
263.388950
263.385923
263.382929
263.379969
263.377042
263.374148
263.371286
263.368456
263.365658
263.362892
263.360156
263.357452
263.354779
263.352135
263.349522
263.346939
263.344385
263.341860
263.339365
263.336898
263.334459
263.332049
263.329666
263.327311
263.324983
263.322683
263.320409
263.318162
263.315941
263.313746
263.311576
263.309433
263.307314
263.305221
263.303152
263.301108
263.299088
263.297092
263.295120
263.293172
263.291246
263.289344
263.287465
263.285608
263.283774
263.281961
263.280171
263.278402
263.276655
263.274929
263.273224
263.271540
263.269877
263.268233
263.266610
263.265007
263.263424
263.261860
263.260316
263.258790
263.257284
263.255796
263.254327
263.252876
263.251444
263.250029
263.248632
263.247252
263.245890
263.244545
263.243217
263.241905
263.240611
263.239332
263.238070
263.236825
263.235594
263.234380
263.233181
263.231998
263.230830
263.229676
263.228538
263.227414
263.226305
263.225210
263.224130
263.223063
263.222011
263.220972
263.219946
263.218934
263.217936
263.216950
263.215977
263.215017
263.214070
263.213136
263.212213
263.211303
263.210405
263.209519
263.208645
263.207782
263.206931
263.206091
263.205263
263.204445
263.203639
263.202843
263.202059
263.201284
263.200521
263.199767
263.199024
263.198291
263.197568
263.196855
263.196151
263.195457
263.194773
263.194098
263.193432
263.192776
263.192128
263.191490
263.190860
263.190239
263.189627
263.189023
263.188427
263.187840
263.187261
263.186690
263.186127
263.185572
263.185024
263.184485
263.183953
263.183428
263.182911
263.182401
263.181899
263.181403
263.180914
263.180433
263.179958
263.179490
263.179029
263.178574
263.178126
263.177684
263.177249
263.176820
263.176397
263.175980
263.175569
263.175164
263.174764
263.174371
263.173983
263.173601
263.173225
263.172854
263.172488
263.172128
263.171772
263.171423
263.171078
263.170738
263.170403
263.170073
263.169748
263.169428
263.169112
263.168802
263.168495
263.168193
263.167896
263.167603
263.167315
263.167030
263.166750
263.166474
263.166202
263.165934
263.165671
263.165411
263.165155
263.164902
263.164654
263.164409
263.164168
263.163930
263.163696
263.163466
263.163239
263.163015
263.162795
263.162578
263.162364
263.162154
263.161947
263.161742
263.161541
263.161343
263.161148
263.160956
263.160766
263.160580
263.160396
263.160215
263.160037
263.159861
263.159688
263.159518
263.159350
263.159185
263.159022
263.158862
263.158704
263.158548
263.158395
263.158244
263.158095
263.157949
263.157804
263.157662
263.157522
263.157384
263.157248
263.157114
263.156982
263.156852
263.156724
263.156598
263.156473
263.156351
263.156230
263.156111
263.155993
263.155878
263.155764
263.155652
263.155541
263.155432
263.155324
263.155218
263.155113
263.155010
263.154908
263.154808
263.154709
263.154612
263.154516
263.154421
263.154327
263.154235
263.154143
263.154054
263.153965
263.153877
263.153791
263.153705
263.153621
263.153538
263.153456
263.153375
263.153295
263.153216
263.153137
263.153060
263.152984
263.152908
263.152834
263.152760
263.152687
263.152615
263.152543
263.152473
263.152403
263.152334
263.152266
263.152198
263.152131
263.152064
263.151998
263.151933
263.151869
263.151805
263.151741
263.151678
263.151616
263.151554
263.151492
263.151431
263.151370
263.151310
263.151250
263.151191
263.151132
263.151073
263.151015
263.150957
263.150899
263.150841
263.150784
263.150727
263.150670
263.150614
263.150557
263.150501
263.150445
263.150389
263.150333
263.150278
263.150222
263.150166
263.150111
263.150055
263.150000
        </DataArray>
      </PointData>
      <CellData>
      </CellData>
    </Piece>
  </UnstructuredGrid>
</VTKFile>
