<?xml version="1.0"?>
<VTKFile type="UnstructuredGrid" version="0.1" byte_order="LittleEndian">
  <UnstructuredGrid>
    <Piece NumberOfPoints="801" NumberOfCells="800">
      <Points>
        <DataArray type="Float32" NumberOfComponents="3" format="ascii">
0.000000 0.0 0.0
0.005000 0.0 0.0
0.010000 0.0 0.0
0.015000 0.0 0.0
0.020000 0.0 0.0
0.025000 0.0 0.0
0.030000 0.0 0.0
0.035000 0.0 0.0
0.040000 0.0 0.0
0.045000 0.0 0.0
0.050000 0.0 0.0
0.055000 0.0 0.0
0.060000 0.0 0.0
0.065000 0.0 0.0
0.070000 0.0 0.0
0.075000 0.0 0.0
0.080000 0.0 0.0
0.085000 0.0 0.0
0.090000 0.0 0.0
0.095000 0.0 0.0
0.100000 0.0 0.0
0.105000 0.0 0.0
0.110000 0.0 0.0
0.115000 0.0 0.0
0.120000 0.0 0.0
0.125000 0.0 0.0
0.130000 0.0 0.0
0.135000 0.0 0.0
0.140000 0.0 0.0
0.145000 0.0 0.0
0.150000 0.0 0.0
0.155000 0.0 0.0
0.160000 0.0 0.0
0.165000 0.0 0.0
0.170000 0.0 0.0
0.175000 0.0 0.0
0.180000 0.0 0.0
0.185000 0.0 0.0
0.190000 0.0 0.0
0.195000 0.0 0.0
0.200000 0.0 0.0
0.205000 0.0 0.0
0.210000 0.0 0.0
0.215000 0.0 0.0
0.220000 0.0 0.0
0.225000 0.0 0.0
0.230000 0.0 0.0
0.235000 0.0 0.0
0.240000 0.0 0.0
0.245000 0.0 0.0
0.250000 0.0 0.0
0.255000 0.0 0.0
0.260000 0.0 0.0
0.265000 0.0 0.0
0.270000 0.0 0.0
0.275000 0.0 0.0
0.280000 0.0 0.0
0.285000 0.0 0.0
0.290000 0.0 0.0
0.295000 0.0 0.0
0.300000 0.0 0.0
0.305000 0.0 0.0
0.310000 0.0 0.0
0.315000 0.0 0.0
0.320000 0.0 0.0
0.325000 0.0 0.0
0.330000 0.0 0.0
0.335000 0.0 0.0
0.340000 0.0 0.0
0.345000 0.0 0.0
0.350000 0.0 0.0
0.355000 0.0 0.0
0.360000 0.0 0.0
0.365000 0.0 0.0
0.370000 0.0 0.0
0.375000 0.0 0.0
0.380000 0.0 0.0
0.385000 0.0 0.0
0.390000 0.0 0.0
0.395000 0.0 0.0
0.400000 0.0 0.0
0.405000 0.0 0.0
0.410000 0.0 0.0
0.415000 0.0 0.0
0.420000 0.0 0.0
0.425000 0.0 0.0
0.430000 0.0 0.0
0.435000 0.0 0.0
0.440000 0.0 0.0
0.445000 0.0 0.0
0.450000 0.0 0.0
0.455000 0.0 0.0
0.460000 0.0 0.0
0.465000 0.0 0.0
0.470000 0.0 0.0
0.475000 0.0 0.0
0.480000 0.0 0.0
0.485000 0.0 0.0
0.490000 0.0 0.0
0.495000 0.0 0.0
0.500000 0.0 0.0
0.505000 0.0 0.0
0.510000 0.0 0.0
0.515000 0.0 0.0
0.520000 0.0 0.0
0.525000 0.0 0.0
0.530000 0.0 0.0
0.535000 0.0 0.0
0.540000 0.0 0.0
0.545000 0.0 0.0
0.550000 0.0 0.0
0.555000 0.0 0.0
0.560000 0.0 0.0
0.565000 0.0 0.0
0.570000 0.0 0.0
0.575000 0.0 0.0
0.580000 0.0 0.0
0.585000 0.0 0.0
0.590000 0.0 0.0
0.595000 0.0 0.0
0.600000 0.0 0.0
0.605000 0.0 0.0
0.610000 0.0 0.0
0.615000 0.0 0.0
0.620000 0.0 0.0
0.625000 0.0 0.0
0.630000 0.0 0.0
0.635000 0.0 0.0
0.640000 0.0 0.0
0.645000 0.0 0.0
0.650000 0.0 0.0
0.655000 0.0 0.0
0.660000 0.0 0.0
0.665000 0.0 0.0
0.670000 0.0 0.0
0.675000 0.0 0.0
0.680000 0.0 0.0
0.685000 0.0 0.0
0.690000 0.0 0.0
0.695000 0.0 0.0
0.700000 0.0 0.0
0.705000 0.0 0.0
0.710000 0.0 0.0
0.715000 0.0 0.0
0.720000 0.0 0.0
0.725000 0.0 0.0
0.730000 0.0 0.0
0.735000 0.0 0.0
0.740000 0.0 0.0
0.745000 0.0 0.0
0.750000 0.0 0.0
0.755000 0.0 0.0
0.760000 0.0 0.0
0.765000 0.0 0.0
0.770000 0.0 0.0
0.775000 0.0 0.0
0.780000 0.0 0.0
0.785000 0.0 0.0
0.790000 0.0 0.0
0.795000 0.0 0.0
0.800000 0.0 0.0
0.805000 0.0 0.0
0.810000 0.0 0.0
0.815000 0.0 0.0
0.820000 0.0 0.0
0.825000 0.0 0.0
0.830000 0.0 0.0
0.835000 0.0 0.0
0.840000 0.0 0.0
0.845000 0.0 0.0
0.850000 0.0 0.0
0.855000 0.0 0.0
0.860000 0.0 0.0
0.865000 0.0 0.0
0.870000 0.0 0.0
0.875000 0.0 0.0
0.880000 0.0 0.0
0.885000 0.0 0.0
0.890000 0.0 0.0
0.895000 0.0 0.0
0.900000 0.0 0.0
0.905000 0.0 0.0
0.910000 0.0 0.0
0.915000 0.0 0.0
0.920000 0.0 0.0
0.925000 0.0 0.0
0.930000 0.0 0.0
0.935000 0.0 0.0
0.940000 0.0 0.0
0.945000 0.0 0.0
0.950000 0.0 0.0
0.955000 0.0 0.0
0.960000 0.0 0.0
0.965000 0.0 0.0
0.970000 0.0 0.0
0.975000 0.0 0.0
0.980000 0.0 0.0
0.985000 0.0 0.0
0.990000 0.0 0.0
0.995000 0.0 0.0
1.000000 0.0 0.0
1.005000 0.0 0.0
1.010000 0.0 0.0
1.015000 0.0 0.0
1.020000 0.0 0.0
1.025000 0.0 0.0
1.030000 0.0 0.0
1.035000 0.0 0.0
1.040000 0.0 0.0
1.045000 0.0 0.0
1.050000 0.0 0.0
1.055000 0.0 0.0
1.060000 0.0 0.0
1.065000 0.0 0.0
1.070000 0.0 0.0
1.075000 0.0 0.0
1.080000 0.0 0.0
1.085000 0.0 0.0
1.090000 0.0 0.0
1.095000 0.0 0.0
1.100000 0.0 0.0
1.105000 0.0 0.0
1.110000 0.0 0.0
1.115000 0.0 0.0
1.120000 0.0 0.0
1.125000 0.0 0.0
1.130000 0.0 0.0
1.135000 0.0 0.0
1.140000 0.0 0.0
1.145000 0.0 0.0
1.150000 0.0 0.0
1.155000 0.0 0.0
1.160000 0.0 0.0
1.165000 0.0 0.0
1.170000 0.0 0.0
1.175000 0.0 0.0
1.180000 0.0 0.0
1.185000 0.0 0.0
1.190000 0.0 0.0
1.195000 0.0 0.0
1.200000 0.0 0.0
1.205000 0.0 0.0
1.210000 0.0 0.0
1.215000 0.0 0.0
1.220000 0.0 0.0
1.225000 0.0 0.0
1.230000 0.0 0.0
1.235000 0.0 0.0
1.240000 0.0 0.0
1.245000 0.0 0.0
1.250000 0.0 0.0
1.255000 0.0 0.0
1.260000 0.0 0.0
1.265000 0.0 0.0
1.270000 0.0 0.0
1.275000 0.0 0.0
1.280000 0.0 0.0
1.285000 0.0 0.0
1.290000 0.0 0.0
1.295000 0.0 0.0
1.300000 0.0 0.0
1.305000 0.0 0.0
1.310000 0.0 0.0
1.315000 0.0 0.0
1.320000 0.0 0.0
1.325000 0.0 0.0
1.330000 0.0 0.0
1.335000 0.0 0.0
1.340000 0.0 0.0
1.345000 0.0 0.0
1.350000 0.0 0.0
1.355000 0.0 0.0
1.360000 0.0 0.0
1.365000 0.0 0.0
1.370000 0.0 0.0
1.375000 0.0 0.0
1.380000 0.0 0.0
1.385000 0.0 0.0
1.390000 0.0 0.0
1.395000 0.0 0.0
1.400000 0.0 0.0
1.405000 0.0 0.0
1.410000 0.0 0.0
1.415000 0.0 0.0
1.420000 0.0 0.0
1.425000 0.0 0.0
1.430000 0.0 0.0
1.435000 0.0 0.0
1.440000 0.0 0.0
1.445000 0.0 0.0
1.450000 0.0 0.0
1.455000 0.0 0.0
1.460000 0.0 0.0
1.465000 0.0 0.0
1.470000 0.0 0.0
1.475000 0.0 0.0
1.480000 0.0 0.0
1.485000 0.0 0.0
1.490000 0.0 0.0
1.495000 0.0 0.0
1.500000 0.0 0.0
1.505000 0.0 0.0
1.510000 0.0 0.0
1.515000 0.0 0.0
1.520000 0.0 0.0
1.525000 0.0 0.0
1.530000 0.0 0.0
1.535000 0.0 0.0
1.540000 0.0 0.0
1.545000 0.0 0.0
1.550000 0.0 0.0
1.555000 0.0 0.0
1.560000 0.0 0.0
1.565000 0.0 0.0
1.570000 0.0 0.0
1.575000 0.0 0.0
1.580000 0.0 0.0
1.585000 0.0 0.0
1.590000 0.0 0.0
1.595000 0.0 0.0
1.600000 0.0 0.0
1.605000 0.0 0.0
1.610000 0.0 0.0
1.615000 0.0 0.0
1.620000 0.0 0.0
1.625000 0.0 0.0
1.630000 0.0 0.0
1.635000 0.0 0.0
1.640000 0.0 0.0
1.645000 0.0 0.0
1.650000 0.0 0.0
1.655000 0.0 0.0
1.660000 0.0 0.0
1.665000 0.0 0.0
1.670000 0.0 0.0
1.675000 0.0 0.0
1.680000 0.0 0.0
1.685000 0.0 0.0
1.690000 0.0 0.0
1.695000 0.0 0.0
1.700000 0.0 0.0
1.705000 0.0 0.0
1.710000 0.0 0.0
1.715000 0.0 0.0
1.720000 0.0 0.0
1.725000 0.0 0.0
1.730000 0.0 0.0
1.735000 0.0 0.0
1.740000 0.0 0.0
1.745000 0.0 0.0
1.750000 0.0 0.0
1.755000 0.0 0.0
1.760000 0.0 0.0
1.765000 0.0 0.0
1.770000 0.0 0.0
1.775000 0.0 0.0
1.780000 0.0 0.0
1.785000 0.0 0.0
1.790000 0.0 0.0
1.795000 0.0 0.0
1.800000 0.0 0.0
1.805000 0.0 0.0
1.810000 0.0 0.0
1.815000 0.0 0.0
1.820000 0.0 0.0
1.825000 0.0 0.0
1.830000 0.0 0.0
1.835000 0.0 0.0
1.840000 0.0 0.0
1.845000 0.0 0.0
1.850000 0.0 0.0
1.855000 0.0 0.0
1.860000 0.0 0.0
1.865000 0.0 0.0
1.870000 0.0 0.0
1.875000 0.0 0.0
1.880000 0.0 0.0
1.885000 0.0 0.0
1.890000 0.0 0.0
1.895000 0.0 0.0
1.900000 0.0 0.0
1.905000 0.0 0.0
1.910000 0.0 0.0
1.915000 0.0 0.0
1.920000 0.0 0.0
1.925000 0.0 0.0
1.930000 0.0 0.0
1.935000 0.0 0.0
1.940000 0.0 0.0
1.945000 0.0 0.0
1.950000 0.0 0.0
1.955000 0.0 0.0
1.960000 0.0 0.0
1.965000 0.0 0.0
1.970000 0.0 0.0
1.975000 0.0 0.0
1.980000 0.0 0.0
1.985000 0.0 0.0
1.990000 0.0 0.0
1.995000 0.0 0.0
2.000000 0.0 0.0
2.005000 0.0 0.0
2.010000 0.0 0.0
2.015000 0.0 0.0
2.020000 0.0 0.0
2.025000 0.0 0.0
2.030000 0.0 0.0
2.035000 0.0 0.0
2.040000 0.0 0.0
2.045000 0.0 0.0
2.050000 0.0 0.0
2.055000 0.0 0.0
2.060000 0.0 0.0
2.065000 0.0 0.0
2.070000 0.0 0.0
2.075000 0.0 0.0
2.080000 0.0 0.0
2.085000 0.0 0.0
2.090000 0.0 0.0
2.095000 0.0 0.0
2.100000 0.0 0.0
2.105000 0.0 0.0
2.110000 0.0 0.0
2.115000 0.0 0.0
2.120000 0.0 0.0
2.125000 0.0 0.0
2.130000 0.0 0.0
2.135000 0.0 0.0
2.140000 0.0 0.0
2.145000 0.0 0.0
2.150000 0.0 0.0
2.155000 0.0 0.0
2.160000 0.0 0.0
2.165000 0.0 0.0
2.170000 0.0 0.0
2.175000 0.0 0.0
2.180000 0.0 0.0
2.185000 0.0 0.0
2.190000 0.0 0.0
2.195000 0.0 0.0
2.200000 0.0 0.0
2.205000 0.0 0.0
2.210000 0.0 0.0
2.215000 0.0 0.0
2.220000 0.0 0.0
2.225000 0.0 0.0
2.230000 0.0 0.0
2.235000 0.0 0.0
2.240000 0.0 0.0
2.245000 0.0 0.0
2.250000 0.0 0.0
2.255000 0.0 0.0
2.260000 0.0 0.0
2.265000 0.0 0.0
2.270000 0.0 0.0
2.275000 0.0 0.0
2.280000 0.0 0.0
2.285000 0.0 0.0
2.290000 0.0 0.0
2.295000 0.0 0.0
2.300000 0.0 0.0
2.305000 0.0 0.0
2.310000 0.0 0.0
2.315000 0.0 0.0
2.320000 0.0 0.0
2.325000 0.0 0.0
2.330000 0.0 0.0
2.335000 0.0 0.0
2.340000 0.0 0.0
2.345000 0.0 0.0
2.350000 0.0 0.0
2.355000 0.0 0.0
2.360000 0.0 0.0
2.365000 0.0 0.0
2.370000 0.0 0.0
2.375000 0.0 0.0
2.380000 0.0 0.0
2.385000 0.0 0.0
2.390000 0.0 0.0
2.395000 0.0 0.0
2.400000 0.0 0.0
2.405000 0.0 0.0
2.410000 0.0 0.0
2.415000 0.0 0.0
2.420000 0.0 0.0
2.425000 0.0 0.0
2.430000 0.0 0.0
2.435000 0.0 0.0
2.440000 0.0 0.0
2.445000 0.0 0.0
2.450000 0.0 0.0
2.455000 0.0 0.0
2.460000 0.0 0.0
2.465000 0.0 0.0
2.470000 0.0 0.0
2.475000 0.0 0.0
2.480000 0.0 0.0
2.485000 0.0 0.0
2.490000 0.0 0.0
2.495000 0.0 0.0
2.500000 0.0 0.0
2.505000 0.0 0.0
2.510000 0.0 0.0
2.515000 0.0 0.0
2.520000 0.0 0.0
2.525000 0.0 0.0
2.530000 0.0 0.0
2.535000 0.0 0.0
2.540000 0.0 0.0
2.545000 0.0 0.0
2.550000 0.0 0.0
2.555000 0.0 0.0
2.560000 0.0 0.0
2.565000 0.0 0.0
2.570000 0.0 0.0
2.575000 0.0 0.0
2.580000 0.0 0.0
2.585000 0.0 0.0
2.590000 0.0 0.0
2.595000 0.0 0.0
2.600000 0.0 0.0
2.605000 0.0 0.0
2.610000 0.0 0.0
2.615000 0.0 0.0
2.620000 0.0 0.0
2.625000 0.0 0.0
2.630000 0.0 0.0
2.635000 0.0 0.0
2.640000 0.0 0.0
2.645000 0.0 0.0
2.650000 0.0 0.0
2.655000 0.0 0.0
2.660000 0.0 0.0
2.665000 0.0 0.0
2.670000 0.0 0.0
2.675000 0.0 0.0
2.680000 0.0 0.0
2.685000 0.0 0.0
2.690000 0.0 0.0
2.695000 0.0 0.0
2.700000 0.0 0.0
2.705000 0.0 0.0
2.710000 0.0 0.0
2.715000 0.0 0.0
2.720000 0.0 0.0
2.725000 0.0 0.0
2.730000 0.0 0.0
2.735000 0.0 0.0
2.740000 0.0 0.0
2.745000 0.0 0.0
2.750000 0.0 0.0
2.755000 0.0 0.0
2.760000 0.0 0.0
2.765000 0.0 0.0
2.770000 0.0 0.0
2.775000 0.0 0.0
2.780000 0.0 0.0
2.785000 0.0 0.0
2.790000 0.0 0.0
2.795000 0.0 0.0
2.800000 0.0 0.0
2.805000 0.0 0.0
2.810000 0.0 0.0
2.815000 0.0 0.0
2.820000 0.0 0.0
2.825000 0.0 0.0
2.830000 0.0 0.0
2.835000 0.0 0.0
2.840000 0.0 0.0
2.845000 0.0 0.0
2.850000 0.0 0.0
2.855000 0.0 0.0
2.860000 0.0 0.0
[...]
      <PointData Scalars="Temperature">
        <DataArray type="Float32" Name="Temperature" format="ascii">
308.150000
307.192688
306.235579
305.278873
304.322773
303.367481
302.413197
301.460122
300.508454
299.558393
298.610137
297.663882
296.719823
295.778155
294.839069
293.902758
292.969411
292.039214
291.112355
290.189017
289.269381
288.353626
287.441931
286.534469
285.631413
284.732932
283.839193
282.950360
282.066592
281.188046
280.314877
279.447233
278.585261
277.729100
276.878888
276.034755
275.196869
274.368083
273.634373
273.245933
273.053176
272.927810
272.831938
272.751880
272.681423
272.617277
272.557509
272.500896
272.446624
272.394127
272.342999
272.292942
272.243734
272.195206
272.147228
272.099702
272.052547
272.005704
271.959124
271.912770
271.866610
271.820623
271.774788
271.729092
271.683523
271.638071
271.592729
271.547492
271.502357
271.457318
271.412375
271.367526
271.322769
271.278104
271.233529
271.189047
271.144655
271.100355
271.056147
271.012032
270.968009
270.924081
270.880247
270.836509
270.792867
270.749322
270.705875
270.662527
270.619279
270.576132
270.533086
270.490143
270.447303
270.404568
270.361938
270.319414
270.276997
270.234688
270.192488
270.150398
270.108418
270.066550
270.024795
269.983152
269.941624
269.900210
269.858912
269.817731
269.776667
269.735721
269.694895
269.654188
269.613601
269.573136
269.532792
269.492572
269.452475
269.412502
269.372655
269.332933
269.293337
269.253869
269.214528
269.175316
269.136233
269.097280
269.058457
269.019765
268.981205
268.942777
268.904482
268.866321
268.828294
268.790401
268.752644
268.715023
268.677538
268.640190
268.602980
268.565907
268.528973
268.492178
268.455523
268.419008
268.382633
268.346399
268.310306
268.274356
268.238547
268.202882
268.167359
268.131980
268.096745
268.061655
268.026709
267.991908
267.957253
267.922743
267.888380
267.854163
267.820093
267.786170
267.752395
267.718767
267.685287
267.651956
267.618773
267.585739
267.552854
267.520118
267.487532
267.455096
267.422809
267.390673
267.358687
267.326851
267.295166
267.263632
267.232249
267.201018
267.169937
267.139008
267.108231
267.077605
267.047131
267.016808
266.986638
266.956619
266.926753
266.897039
266.867477
266.838067
266.808809
266.779704
266.750751
266.721950
266.693301
266.664805
266.636460
266.608268
266.580229
266.552341
266.524605
266.497021
266.469590
266.442310
266.415181
266.388205
266.361380
266.334706
266.308184
266.281813
266.255593
266.229524
266.203605
266.177838
266.152220
266.126753
266.101436
266.076269
266.051252
266.026384
266.001665
265.977096
265.952675
265.928403
265.904280
265.880304
265.856477
265.832797
265.809264
265.785879
265.762640
265.739548
265.716603
265.693803
265.671149
265.648640
265.626276
265.604057
265.581983
265.560052
265.538265
265.516622
265.495121
265.473764
265.452548
265.431475
265.410543
265.389752
265.369103
265.348593
265.328224
265.307994
265.287904
265.267952
265.248139
265.228464
265.208926
265.189526
265.170262
265.151135
265.132143
265.113287
265.094566
265.075979
265.057526
265.039207
265.021021
265.002968
264.985047
264.967257
264.949599
264.932072
264.914675
264.897407
264.880269
264.863259
264.846378
264.829625
264.812998
264.796499
264.780126
264.763878
264.747756
264.731758
264.715884
264.700134
264.684507
264.669002
264.653620
264.638359
264.623219
264.608199
264.593299
264.578518
264.563856
264.549312
264.534885
264.520576
264.506383
264.492306
264.478345
264.464498
264.450765
264.437146
264.423641
264.410247
264.396966
264.383796
264.370736
264.357787
264.344948
264.332217
264.319595
264.307081
264.294674
264.282374
264.270180
264.258092
264.246109
264.234230
264.222454
264.210782
264.199213
264.187745
264.176379
264.165114
264.153949
264.142884
264.131918
264.121050
264.110280
264.099607
264.089032
264.078552
264.068168
264.057878
264.047683
264.037582
264.027574
264.017659
264.007835
263.998103
263.988462
263.978911
263.969450
263.960077
263.950794
263.941598
263.932489
263.923467
263.914531
263.905681
263.896915
263.888234
263.879637
263.871123
263.862692
263.854343
263.846075
263.837888
263.829782
263.821755
263.813807
263.805939
263.798148
263.790435
263.782798
263.775238
263.767754
263.760345
263.753011
263.745751
263.738565
263.731452
263.724411
263.717442
263.710544
263.703717
263.696961
263.690274
263.683657
263.677108
263.670627
263.664214
263.657868
263.651588
263.645375
263.639227
263.633144
263.627125
263.621170
263.615279
263.609450
263.603684
263.597980
263.592336
263.586754
263.581232
263.575770
263.570367
263.565023
263.559737
263.554509
263.549338
263.544225
263.539167
263.534165
263.529219
263.524327
263.519490
263.514707
263.509977
263.505301
263.500676
263.496104
263.491584
263.487114
263.482695
263.478326
263.474007
263.469738
263.465517
263.461344
263.457220
263.453143
263.449113
263.445130
263.441192
263.437301
263.433455
263.429654
263.425897
263.422184
263.418515
263.414890
263.411307
263.407766
263.404267
263.400810
263.397394
263.394019
263.390685
263.387390
263.384135
263.380919
263.377742
263.374603
263.371502
263.368439
263.365414
263.362425
263.359472
263.356556
263.353676
263.350831
263.348021
263.345246
263.342506
263.339799
263.337126
263.334486
263.331879
263.329305
263.326763
263.324253
263.321775
263.319328
263.316911
263.314526
263.312170
263.309845
263.307549
263.305283
263.303046
263.300837
263.298657
263.296504
263.294380
263.292283
263.290213
263.288170
263.286154
263.284163
263.282199
263.280261
263.278348
263.276460
263.274597
263.272758
263.270944
263.269154
263.267387
263.265644
263.263924
263.262228
263.260553
263.258902
263.257272
263.255664
263.254078
263.252514
263.250970
263.249448
263.247946
263.246464
263.245003
263.243561
263.242140
263.240738
263.239355
263.237991
263.236645
263.235319
263.234011
263.232721
263.231448
263.230194
263.228957
263.227737
263.226534
263.225348
263.224179
263.223026
263.221890
263.220769
263.219664
263.218575
263.217502
263.216443
263.215400
263.214372
263.213358
263.212359
263.211374
263.210403
263.209446
263.208503
263.207574
263.206658
263.205755
263.204865
263.203989
263.203125
263.202274
263.201435
263.200608
263.199794
263.198991
263.198201
263.197422
263.196654
263.195898
263.195153
263.194419
263.193696
263.192984
263.192282
263.191591
263.190910
263.190240
263.189579
263.188929
263.188288
263.187657
263.187035
263.186423
263.185820
263.185227
263.184642
263.184066
263.183499
263.182941
263.182391
263.181850
263.181317
263.180792
263.180275
263.179767
263.179266
263.178773
263.178287
263.177809
263.177339
263.176876
263.176420
263.175971
263.175529
263.175094
263.174666
263.174245
263.173830
263.173422
263.173021
263.172625
263.172236
263.171854
263.171477
263.171106
263.170741
263.170382
263.170029
263.169682
263.169340
263.169003
263.168672
263.168346
263.168026
263.167710
263.167400
263.167095
263.166795
263.166500
263.166209
263.165923
263.165642
263.165366
263.165094
263.164826
263.164563
263.164304
263.164050
263.163800
263.163553
263.163311
263.163073
263.162839
263.162609
263.162382
263.162160
263.161941
263.161726
263.161514
263.161306
263.161101
263.160900
263.160702
263.160508
263.160317
263.160129
263.159944
263.159762
263.159584
263.159408
263.159236
263.159066
263.158899
263.158735
263.158574
263.158416
263.158261
263.158108
263.157957
263.157810
263.157664
263.157522
263.157382
263.157244
263.157108
263.156975
263.156845
263.156716
263.156590
263.156466
263.156344
263.156224
263.156106
263.155991
263.155877
263.155766
263.155656
263.155548
263.155442
263.155338
263.155236
263.155136
263.155037
263.154940
263.154845
263.154752
263.154660
263.154570
263.154481
263.154394
263.154309
263.154225
263.154142
263.154061
263.153982
263.153903
263.153827
263.153751
263.153677
263.153604
263.153533
263.153463
263.153394
263.153326
263.153260
263.153194
263.153130
263.153067
263.153005
263.152944
263.152885
263.152826
263.152768
263.152712
263.152656
263.152601
263.152548
263.152495
263.152443
263.152393
263.152343
263.152293
263.152245
263.152198
263.152151
263.152106
263.152061
263.152017
263.151973
263.151931
263.151889
263.151848
263.151807
263.151767
263.151728
263.151690
263.151652
263.151615
263.151579
263.151543
263.151508
263.151473
263.151439
263.151405
263.151372
263.151340
263.151308
263.151277
263.151246
263.151215
263.151185
263.151156
263.151127
263.151098
263.151070
263.151043
263.151015
263.150989
263.150962
263.150936
263.150910
263.150885
263.150860
263.150835
263.150811
263.150787
263.150764
263.150740
263.150717
263.150694
263.150672
263.150650
263.150628
263.150606
263.150585
263.150564
263.150543
263.150522
263.150502
263.150481
263.150461
263.150441
263.150421
263.150402
263.150383
263.150363
263.150344
263.150325
263.150306
263.150288
263.150269
263.150251
263.150232
263.150214
263.150196
263.150178
263.150160
263.150142
263.150124
263.150106
263.150089
263.150071
263.150053
263.150035
263.150018
263.150000
        </DataArray>
      </PointData>
      <CellData>
      </CellData>
    </Piece>
  </UnstructuredGrid>
</VTKFile>
