<?xml version="1.0"?>
<VTKFile type="UnstructuredGrid" version="0.1" byte_order="LittleEndian">
  <UnstructuredGrid>
    <Piece NumberOfPoints="801" NumberOfCells="800">
      <Points>
        <DataArray type="Float32" NumberOfComponents="3" format="ascii">
0.000000 0.0 0.0
0.005000 0.0 0.0
0.010000 0.0 0.0
0.015000 0.0 0.0
0.020000 0.0 0.0
0.025000 0.0 0.0
0.030000 0.0 0.0
0.035000 0.0 0.0
0.040000 0.0 0.0
0.045000 0.0 0.0
0.050000 0.0 0.0
0.055000 0.0 0.0
0.060000 0.0 0.0
0.065000 0.0 0.0
0.070000 0.0 0.0
0.075000 0.0 0.0
0.080000 0.0 0.0
0.085000 0.0 0.0
0.090000 0.0 0.0
0.095000 0.0 0.0
0.100000 0.0 0.0
0.105000 0.0 0.0
0.110000 0.0 0.0
0.115000 0.0 0.0
0.120000 0.0 0.0
0.125000 0.0 0.0
0.130000 0.0 0.0
0.135000 0.0 0.0
0.140000 0.0 0.0
0.145000 0.0 0.0
0.150000 0.0 0.0
0.155000 0.0 0.0
0.160000 0.0 0.0
0.165000 0.0 0.0
0.170000 0.0 0.0
0.175000 0.0 0.0
0.180000 0.0 0.0
0.185000 0.0 0.0
0.190000 0.0 0.0
0.195000 0.0 0.0
0.200000 0.0 0.0
0.205000 0.0 0.0
0.210000 0.0 0.0
0.215000 0.0 0.0
0.220000 0.0 0.0
0.225000 0.0 0.0
0.230000 0.0 0.0
0.235000 0.0 0.0
0.240000 0.0 0.0
0.245000 0.0 0.0
0.250000 0.0 0.0
0.255000 0.0 0.0
0.260000 0.0 0.0
0.265000 0.0 0.0
0.270000 0.0 0.0
0.275000 0.0 0.0
0.280000 0.0 0.0
0.285000 0.0 0.0
0.290000 0.0 0.0
0.295000 0.0 0.0
0.300000 0.0 0.0
0.305000 0.0 0.0
0.310000 0.0 0.0
0.315000 0.0 0.0
0.320000 0.0 0.0
0.325000 0.0 0.0
0.330000 0.0 0.0
0.335000 0.0 0.0
0.340000 0.0 0.0
0.345000 0.0 0.0
0.350000 0.0 0.0
0.355000 0.0 0.0
0.360000 0.0 0.0
0.365000 0.0 0.0
0.370000 0.0 0.0
0.375000 0.0 0.0
0.380000 0.0 0.0
0.385000 0.0 0.0
0.390000 0.0 0.0
0.395000 0.0 0.0
0.400000 0.0 0.0
0.405000 0.0 0.0
0.410000 0.0 0.0
0.415000 0.0 0.0
0.420000 0.0 0.0
0.425000 0.0 0.0
0.430000 0.0 0.0
0.435000 0.0 0.0
0.440000 0.0 0.0
0.445000 0.0 0.0
0.450000 0.0 0.0
0.455000 0.0 0.0
0.460000 0.0 0.0
0.465000 0.0 0.0
0.470000 0.0 0.0
0.475000 0.0 0.0
0.480000 0.0 0.0
0.485000 0.0 0.0
0.490000 0.0 0.0
0.495000 0.0 0.0
0.500000 0.0 0.0
0.505000 0.0 0.0
0.510000 0.0 0.0
0.515000 0.0 0.0
0.520000 0.0 0.0
0.525000 0.0 0.0
0.530000 0.0 0.0
0.535000 0.0 0.0
0.540000 0.0 0.0
0.545000 0.0 0.0
0.550000 0.0 0.0
0.555000 0.0 0.0
0.560000 0.0 0.0
0.565000 0.0 0.0
0.570000 0.0 0.0
0.575000 0.0 0.0
0.580000 0.0 0.0
0.585000 0.0 0.0
0.590000 0.0 0.0
0.595000 0.0 0.0
0.600000 0.0 0.0
0.605000 0.0 0.0
0.610000 0.0 0.0
0.615000 0.0 0.0
0.620000 0.0 0.0
0.625000 0.0 0.0
0.630000 0.0 0.0
0.635000 0.0 0.0
0.640000 0.0 0.0
0.645000 0.0 0.0
0.650000 0.0 0.0
0.655000 0.0 0.0
0.660000 0.0 0.0
0.665000 0.0 0.0
0.670000 0.0 0.0
0.675000 0.0 0.0
0.680000 0.0 0.0
0.685000 0.0 0.0
0.690000 0.0 0.0
0.695000 0.0 0.0
0.700000 0.0 0.0
0.705000 0.0 0.0
0.710000 0.0 0.0
0.715000 0.0 0.0
0.720000 0.0 0.0
0.725000 0.0 0.0
0.730000 0.0 0.0
0.735000 0.0 0.0
0.740000 0.0 0.0
0.745000 0.0 0.0
0.750000 0.0 0.0
0.755000 0.0 0.0
0.760000 0.0 0.0
0.765000 0.0 0.0
0.770000 0.0 0.0
0.775000 0.0 0.0
0.780000 0.0 0.0
0.785000 0.0 0.0
0.790000 0.0 0.0
0.795000 0.0 0.0
0.800000 0.0 0.0
0.805000 0.0 0.0
0.810000 0.0 0.0
0.815000 0.0 0.0
0.820000 0.0 0.0
0.825000 0.0 0.0
0.830000 0.0 0.0
0.835000 0.0 0.0
0.840000 0.0 0.0
0.845000 0.0 0.0
0.850000 0.0 0.0
0.855000 0.0 0.0
0.860000 0.0 0.0
0.865000 0.0 0.0
0.870000 0.0 0.0
0.875000 0.0 0.0
0.880000 0.0 0.0
0.885000 0.0 0.0
0.890000 0.0 0.0
0.895000 0.0 0.0
0.900000 0.0 0.0
0.905000 0.0 0.0
0.910000 0.0 0.0
0.915000 0.0 0.0
0.920000 0.0 0.0
0.925000 0.0 0.0
0.930000 0.0 0.0
0.935000 0.0 0.0
0.940000 0.0 0.0
0.945000 0.0 0.0
0.950000 0.0 0.0
0.955000 0.0 0.0
0.960000 0.0 0.0
0.965000 0.0 0.0
0.970000 0.0 0.0
0.975000 0.0 0.0
0.980000 0.0 0.0
0.985000 0.0 0.0
0.990000 0.0 0.0
0.995000 0.0 0.0
1.000000 0.0 0.0
1.005000 0.0 0.0
1.010000 0.0 0.0
1.015000 0.0 0.0
1.020000 0.0 0.0
1.025000 0.0 0.0
1.030000 0.0 0.0
1.035000 0.0 0.0
1.040000 0.0 0.0
1.045000 0.0 0.0
1.050000 0.0 0.0
1.055000 0.0 0.0
1.060000 0.0 0.0
1.065000 0.0 0.0
1.070000 0.0 0.0
1.075000 0.0 0.0
1.080000 0.0 0.0
1.085000 0.0 0.0
1.090000 0.0 0.0
1.095000 0.0 0.0
1.100000 0.0 0.0
1.105000 0.0 0.0
1.110000 0.0 0.0
1.115000 0.0 0.0
1.120000 0.0 0.0
1.125000 0.0 0.0
1.130000 0.0 0.0
1.135000 0.0 0.0
1.140000 0.0 0.0
1.145000 0.0 0.0
1.150000 0.0 0.0
1.155000 0.0 0.0
1.160000 0.0 0.0
1.165000 0.0 0.0
1.170000 0.0 0.0
1.175000 0.0 0.0
1.180000 0.0 0.0
1.185000 0.0 0.0
1.190000 0.0 0.0
1.195000 0.0 0.0
1.200000 0.0 0.0
1.205000 0.0 0.0
1.210000 0.0 0.0
1.215000 0.0 0.0
1.220000 0.0 0.0
1.225000 0.0 0.0
1.230000 0.0 0.0
1.235000 0.0 0.0
1.240000 0.0 0.0
1.245000 0.0 0.0
1.250000 0.0 0.0
1.255000 0.0 0.0
1.260000 0.0 0.0
1.265000 0.0 0.0
1.270000 0.0 0.0
1.275000 0.0 0.0
1.280000 0.0 0.0
1.285000 0.0 0.0
1.290000 0.0 0.0
1.295000 0.0 0.0
1.300000 0.0 0.0
1.305000 0.0 0.0
1.310000 0.0 0.0
1.315000 0.0 0.0
1.320000 0.0 0.0
1.325000 0.0 0.0
1.330000 0.0 0.0
1.335000 0.0 0.0
1.340000 0.0 0.0
1.345000 0.0 0.0
1.350000 0.0 0.0
1.355000 0.0 0.0
1.360000 0.0 0.0
1.365000 0.0 0.0
1.370000 0.0 0.0
1.375000 0.0 0.0
1.380000 0.0 0.0
1.385000 0.0 0.0
1.390000 0.0 0.0
1.395000 0.0 0.0
1.400000 0.0 0.0
1.405000 0.0 0.0
1.410000 0.0 0.0
1.415000 0.0 0.0
1.420000 0.0 0.0
1.425000 0.0 0.0
1.430000 0.0 0.0
1.435000 0.0 0.0
1.440000 0.0 0.0
1.445000 0.0 0.0
1.450000 0.0 0.0
1.455000 0.0 0.0
1.460000 0.0 0.0
1.465000 0.0 0.0
1.470000 0.0 0.0
1.475000 0.0 0.0
1.480000 0.0 0.0
1.485000 0.0 0.0
1.490000 0.0 0.0
1.495000 0.0 0.0
1.500000 0.0 0.0
1.505000 0.0 0.0
1.510000 0.0 0.0
1.515000 0.0 0.0
1.520000 0.0 0.0
1.525000 0.0 0.0
1.530000 0.0 0.0
1.535000 0.0 0.0
1.540000 0.0 0.0
1.545000 0.0 0.0
1.550000 0.0 0.0
1.555000 0.0 0.0
1.560000 0.0 0.0
1.565000 0.0 0.0
1.570000 0.0 0.0
1.575000 0.0 0.0
1.580000 0.0 0.0
1.585000 0.0 0.0
1.590000 0.0 0.0
1.595000 0.0 0.0
1.600000 0.0 0.0
1.605000 0.0 0.0
1.610000 0.0 0.0
1.615000 0.0 0.0
1.620000 0.0 0.0
1.625000 0.0 0.0
1.630000 0.0 0.0
1.635000 0.0 0.0
1.640000 0.0 0.0
1.645000 0.0 0.0
1.650000 0.0 0.0
1.655000 0.0 0.0
1.660000 0.0 0.0
1.665000 0.0 0.0
1.670000 0.0 0.0
1.675000 0.0 0.0
1.680000 0.0 0.0
1.685000 0.0 0.0
1.690000 0.0 0.0
1.695000 0.0 0.0
1.700000 0.0 0.0
1.705000 0.0 0.0
1.710000 0.0 0.0
1.715000 0.0 0.0
1.720000 0.0 0.0
1.725000 0.0 0.0
1.730000 0.0 0.0
1.735000 0.0 0.0
1.740000 0.0 0.0
1.745000 0.0 0.0
1.750000 0.0 0.0
1.755000 0.0 0.0
1.760000 0.0 0.0
1.765000 0.0 0.0
1.770000 0.0 0.0
1.775000 0.0 0.0
1.780000 0.0 0.0
1.785000 0.0 0.0
1.790000 0.0 0.0
1.795000 0.0 0.0
1.800000 0.0 0.0
1.805000 0.0 0.0
1.810000 0.0 0.0
1.815000 0.0 0.0
1.820000 0.0 0.0
1.825000 0.0 0.0
1.830000 0.0 0.0
1.835000 0.0 0.0
1.840000 0.0 0.0
1.845000 0.0 0.0
1.850000 0.0 0.0
1.855000 0.0 0.0
1.860000 0.0 0.0
1.865000 0.0 0.0
1.870000 0.0 0.0
1.875000 0.0 0.0
1.880000 0.0 0.0
1.885000 0.0 0.0
1.890000 0.0 0.0
1.895000 0.0 0.0
1.900000 0.0 0.0
1.905000 0.0 0.0
1.910000 0.0 0.0
1.915000 0.0 0.0
1.920000 0.0 0.0
1.925000 0.0 0.0
1.930000 0.0 0.0
1.935000 0.0 0.0
1.940000 0.0 0.0
1.945000 0.0 0.0
1.950000 0.0 0.0
1.955000 0.0 0.0
1.960000 0.0 0.0
1.965000 0.0 0.0
1.970000 0.0 0.0
1.975000 0.0 0.0
1.980000 0.0 0.0
1.985000 0.0 0.0
1.990000 0.0 0.0
1.995000 0.0 0.0
2.000000 0.0 0.0
2.005000 0.0 0.0
2.010000 0.0 0.0
2.015000 0.0 0.0
2.020000 0.0 0.0
2.025000 0.0 0.0
2.030000 0.0 0.0
2.035000 0.0 0.0
2.040000 0.0 0.0
2.045000 0.0 0.0
2.050000 0.0 0.0
2.055000 0.0 0.0
2.060000 0.0 0.0
2.065000 0.0 0.0
2.070000 0.0 0.0
2.075000 0.0 0.0
2.080000 0.0 0.0
2.085000 0.0 0.0
2.090000 0.0 0.0
2.095000 0.0 0.0
2.100000 0.0 0.0
2.105000 0.0 0.0
2.110000 0.0 0.0
2.115000 0.0 0.0
2.120000 0.0 0.0
2.125000 0.0 0.0
2.130000 0.0 0.0
2.135000 0.0 0.0
2.140000 0.0 0.0
2.145000 0.0 0.0
2.150000 0.0 0.0
2.155000 0.0 0.0
2.160000 0.0 0.0
2.165000 0.0 0.0
2.170000 0.0 0.0
2.175000 0.0 0.0
2.180000 0.0 0.0
2.185000 0.0 0.0
2.190000 0.0 0.0
2.195000 0.0 0.0
2.200000 0.0 0.0
2.205000 0.0 0.0
2.210000 0.0 0.0
2.215000 0.0 0.0
2.220000 0.0 0.0
2.225000 0.0 0.0
2.230000 0.0 0.0
2.235000 0.0 0.0
2.240000 0.0 0.0
2.245000 0.0 0.0
2.250000 0.0 0.0
2.255000 0.0 0.0
2.260000 0.0 0.0
2.265000 0.0 0.0
2.270000 0.0 0.0
2.275000 0.0 0.0
2.280000 0.0 0.0
2.285000 0.0 0.0
2.290000 0.0 0.0
2.295000 0.0 0.0
2.300000 0.0 0.0
2.305000 0.0 0.0
2.310000 0.0 0.0
2.315000 0.0 0.0
2.320000 0.0 0.0
2.325000 0.0 0.0
2.330000 0.0 0.0
2.335000 0.0 0.0
2.340000 0.0 0.0
2.345000 0.0 0.0
2.350000 0.0 0.0
2.355000 0.0 0.0
2.360000 0.0 0.0
2.365000 0.0 0.0
2.370000 0.0 0.0
2.375000 0.0 0.0
2.380000 0.0 0.0
2.385000 0.0 0.0
2.390000 0.0 0.0
2.395000 0.0 0.0
2.400000 0.0 0.0
2.405000 0.0 0.0
2.410000 0.0 0.0
2.415000 0.0 0.0
2.420000 0.0 0.0
2.425000 0.0 0.0
2.430000 0.0 0.0
2.435000 0.0 0.0
2.440000 0.0 0.0
2.445000 0.0 0.0
2.450000 0.0 0.0
2.455000 0.0 0.0
2.460000 0.0 0.0
2.465000 0.0 0.0
2.470000 0.0 0.0
2.475000 0.0 0.0
2.480000 0.0 0.0
2.485000 0.0 0.0
2.490000 0.0 0.0
2.495000 0.0 0.0
2.500000 0.0 0.0
2.505000 0.0 0.0
2.510000 0.0 0.0
2.515000 0.0 0.0
2.520000 0.0 0.0
2.525000 0.0 0.0
2.530000 0.0 0.0
2.535000 0.0 0.0
2.540000 0.0 0.0
2.545000 0.0 0.0
2.550000 0.0 0.0
2.555000 0.0 0.0
2.560000 0.0 0.0
2.565000 0.0 0.0
2.570000 0.0 0.0
2.575000 0.0 0.0
2.580000 0.0 0.0
2.585000 0.0 0.0
2.590000 0.0 0.0
2.595000 0.0 0.0
2.600000 0.0 0.0
2.605000 0.0 0.0
2.610000 0.0 0.0
2.615000 0.0 0.0
2.620000 0.0 0.0
2.625000 0.0 0.0
2.630000 0.0 0.0
2.635000 0.0 0.0
2.640000 0.0 0.0
2.645000 0.0 0.0
2.650000 0.0 0.0
2.655000 0.0 0.0
2.660000 0.0 0.0
2.665000 0.0 0.0
2.670000 0.0 0.0
2.675000 0.0 0.0
2.680000 0.0 0.0
2.685000 0.0 0.0
2.690000 0.0 0.0
2.695000 0.0 0.0
2.700000 0.0 0.0
2.705000 0.0 0.0
2.710000 0.0 0.0
2.715000 0.0 0.0
2.720000 0.0 0.0
2.725000 0.0 0.0
2.730000 0.0 0.0
2.735000 0.0 0.0
2.740000 0.0 0.0
2.745000 0.0 0.0
2.750000 0.0 0.0
2.755000 0.0 0.0
2.760000 0.0 0.0
2.765000 0.0 0.0
2.770000 0.0 0.0
2.775000 0.0 0.0
2.780000 0.0 0.0
2.785000 0.0 0.0
2.790000 0.0 0.0
2.795000 0.0 0.0
2.800000 0.0 0.0
2.805000 0.0 0.0
2.810000 0.0 0.0
2.815000 0.0 0.0
2.820000 0.0 0.0
2.825000 0.0 0.0
2.830000 0.0 0.0
2.835000 0.0 0.0
2.840000 0.0 0.0
2.845000 0.0 0.0
2.850000 0.0 0.0
2.855000 0.0 0.0
2.860000 0.0 0.0
[...]
      <PointData Scalars="Temperature">
        <DataArray type="Float32" Name="Temperature" format="ascii">
308.150000
306.963983
305.778343
304.593458
303.409705
302.227460
301.047096
299.868986
298.693500
297.521006
296.351869
295.186452
294.025112
292.868204
291.716080
290.569086
289.427565
288.291854
287.162286
286.039190
284.922889
283.813702
282.711943
281.617922
280.531944
279.454312
278.385324
277.325276
276.274464
275.233232
274.210234
273.441581
273.120734
272.949947
272.829526
272.732227
272.647667
272.570918
272.499294
272.431189
272.365583
272.301796
272.239360
272.177946
272.117317
272.057301
271.997774
271.938643
271.879838
271.821309
271.763019
271.704939
271.647049
271.589334
271.531784
271.474391
271.417149
271.360056
271.303109
271.246307
271.189649
271.133137
271.076771
271.020552
270.964482
270.908561
270.852792
270.797177
270.741716
270.686413
270.631269
270.576285
270.521464
270.466809
270.412319
270.357999
270.303849
270.249872
270.196069
270.142442
270.088993
270.035725
269.982638
269.929734
269.877016
269.824485
269.772143
269.719992
269.668032
269.616267
269.564697
269.513324
269.462149
269.411175
269.360403
269.309834
269.259470
269.209312
269.159362
269.109621
269.060091
269.010772
268.961667
268.912776
268.864101
268.815644
268.767404
268.719384
268.671585
268.624008
268.576654
268.529524
268.482619
268.435941
268.389489
268.343267
268.297273
268.251510
268.205978
268.160679
268.115612
268.070779
268.026181
267.981818
267.937692
267.893802
267.850151
267.806738
267.763563
267.720629
267.677935
267.635482
267.593271
267.551301
267.509575
267.468091
267.426851
267.385855
267.345103
267.304597
267.264335
267.224319
267.184549
267.145025
267.105747
267.066716
267.027932
266.989395
266.951106
266.913063
266.875269
266.837721
266.800422
266.763371
266.726567
266.690011
266.653703
266.617642
266.581829
266.546264
266.510947
266.475877
266.441054
266.406478
266.372149
266.338067
266.304231
266.270641
266.237297
266.204199
266.171347
266.138739
266.106376
266.074257
266.042381
266.010750
265.979361
265.948215
265.917311
265.886648
265.856227
265.826046
265.796105
265.766404
265.736941
265.707717
265.678730
265.649980
265.621467
265.593189
265.565147
265.537338
265.509764
265.482422
265.455312
265.428434
265.401787
265.375369
265.349180
265.323220
265.297487
265.271980
265.246699
265.221643
265.196811
265.172202
265.147815
265.123650
265.099704
265.075978
265.052471
265.029181
265.006107
264.983249
264.960605
264.938175
264.915958
264.893951
264.872156
264.850569
264.829191
264.808020
264.787056
264.766296
264.745741
264.725388
264.705237
264.685287
264.665537
264.645985
264.626630
264.607472
264.588508
264.569739
264.551162
264.532777
264.514582
264.496577
264.478760
264.461129
264.443685
264.426425
264.409348
264.392453
264.375740
264.359206
264.342850
264.326672
264.310671
264.294844
264.279190
264.263709
264.248400
264.233260
264.218289
264.203486
264.188849
264.174377
264.160070
264.145924
264.131940
264.118117
264.104452
264.090945
264.077594
264.064399
264.051358
264.038469
264.025733
264.013146
264.000709
263.988419
263.976276
263.964278
263.952425
263.940715
263.929146
263.917718
263.906430
263.895279
263.884266
263.873388
263.862644
263.852034
263.841556
263.831209
263.820992
263.810903
263.800942
263.791106
263.781396
263.771810
263.762346
263.753004
263.743782
263.734679
263.725695
263.716827
263.708075
263.699437
263.690914
263.682502
263.674202
263.666011
263.657930
263.649957
263.642090
263.634329
263.626673
263.619120
263.611670
263.604321
263.597073
263.589923
263.582872
263.575918
263.569060
263.562297
263.555629
263.549053
263.542569
263.536176
263.529873
263.523659
263.517533
263.511494
263.505541
263.499673
263.493889
263.488188
263.482569
263.477032
263.471575
263.466197
263.460897
263.455675
263.450529
263.445459
263.440464
263.435543
263.430695
263.425918
263.421213
263.416579
263.412013
263.407517
263.403088
263.398726
263.394430
263.390200
263.386034
263.381932
263.377892
263.373915
263.369999
263.366143
263.362348
263.358611
263.354932
263.351311
263.347746
263.344238
263.340784
263.337385
263.334040
263.330748
263.327508
263.324320
263.321183
263.318096
263.315059
263.312071
263.309131
263.306238
263.303393
263.300593
263.297840
263.295131
263.292467
263.289847
263.287269
263.284735
263.282242
263.279791
263.277380
263.275010
263.272679
263.270387
263.268134
263.265919
263.263741
263.261600
263.259495
263.257426
263.255392
263.253393
263.251428
263.249497
263.247600
263.245734
263.243901
263.242100
263.240330
263.238591
263.236882
263.235204
263.233554
263.231934
263.230341
263.228778
263.227241
263.225732
263.224250
263.222794
263.221364
263.219960
263.218580
263.217226
263.215896
263.214590
263.213307
263.212048
263.210812
263.209598
263.208406
263.207236
263.206087
263.204960
263.203853
263.202766
263.201700
263.200653
263.199626
263.198618
263.197629
263.196658
263.195705
263.194770
263.193853
263.192953
263.192070
263.191203
263.190353
263.189520
263.188702
263.187899
263.187112
263.186340
263.185583
263.184840
263.184111
263.183397
263.182696
263.182009
263.181336
263.180675
263.180027
263.179392
263.178770
263.178159
263.177561
263.176974
263.176399
263.175835
263.175282
263.174740
263.174209
263.173689
263.173179
263.172679
263.172189
263.171709
263.171239
263.170778
263.170326
263.169884
263.169450
263.169025
263.168609
263.168201
263.167802
263.167411
263.167027
263.166652
263.166284
263.165924
263.165572
263.165226
263.164888
263.164557
263.164232
263.163915
263.163604
263.163299
263.163001
263.162709
263.162423
263.162144
263.161870
263.161602
263.161339
263.161082
263.160831
263.160585
263.160344
263.160108
263.159877
263.159652
263.159431
263.159214
263.159003
263.158796
263.158593
263.158395
263.158201
263.158012
263.157826
263.157645
263.157467
263.157293
263.157124
263.156957
263.156795
263.156636
263.156480
263.156328
263.156180
263.156034
263.155892
263.155753
263.155617
263.155484
263.155354
263.155227
263.155103
263.154982
263.154863
263.154747
263.154634
263.154523
263.154415
263.154309
263.154205
263.154104
263.154005
263.153909
263.153814
263.153722
263.153632
263.153544
263.153458
263.153374
263.153292
263.153211
263.153133
263.153056
263.152982
263.152908
263.152837
263.152767
263.152699
263.152633
263.152568
263.152504
263.152442
263.152382
263.152323
263.152265
263.152209
263.152154
263.152100
263.152048
263.151997
263.151947
263.151898
263.151850
263.151804
263.151758
263.151714
263.151671
263.151629
263.151588
263.151547
263.151508
263.151470
263.151433
263.151396
263.151361
263.151326
263.151292
263.151259
263.151227
263.151195
263.151165
263.151135
263.151106
263.151077
263.151049
263.151022
263.150996
263.150970
263.150945
263.150920
263.150896
263.150873
263.150850
263.150828
263.150807
263.150786
263.150765
263.150745
263.150725
263.150706
263.150688
263.150670
263.150652
263.150635
263.150618
263.150602
263.150586
263.150570
263.150555
263.150540
263.150526
263.150512
263.150498
263.150485
263.150472
263.150459
263.150447
263.150435
263.150424
263.150412
263.150401
263.150390
263.150380
263.150369
263.150359
263.150350
263.150340
263.150331
263.150322
263.150313
263.150305
263.150296
263.150288
263.150281
263.150273
263.150265
263.150258
263.150251
263.150244
263.150237
263.150231
263.150225
263.150218
263.150212
263.150206
263.150201
263.150195
263.150190
263.150185
263.150179
263.150174
263.150170
263.150165
263.150160
263.150156
263.150151
263.150147
263.150143
263.150139
263.150135
263.150131
263.150128
263.150124
263.150121
263.150117
263.150114
263.150111
263.150107
263.150104
263.150101
263.150099
263.150096
263.150093
263.150090
263.150088
263.150085
263.150083
263.150080
263.150078
263.150076
263.150074
263.150072
263.150070
263.150068
263.150066
263.150064
263.150062
263.150060
263.150058
263.150057
263.150055
263.150053
263.150052
263.150050
263.150049
263.150047
263.150046
263.150045
263.150043
263.150042
263.150041
263.150040
263.150038
263.150037
263.150036
263.150035
263.150034
263.150033
263.150032
263.150031
263.150030
263.150029
263.150028
263.150028
263.150027
263.150026
263.150025
263.150024
263.150024
263.150023
263.150022
263.150021
263.150021
263.150020
263.150020
263.150019
263.150018
263.150018
263.150017
263.150017
263.150016
263.150016
263.150015
263.150015
263.150014
263.150014
263.150013
263.150013
263.150012
263.150012
263.150012
263.150011
263.150011
263.150010
263.150010
263.150010
263.150009
263.150009
263.150009
263.150008
263.150008
263.150008
263.150008
263.150007
263.150007
263.150007
263.150006
263.150006
263.150006
263.150006
263.150005
263.150005
263.150005
263.150005
263.150004
263.150004
263.150004
263.150004
263.150004
263.150003
263.150003
263.150003
263.150003
263.150003
263.150002
263.150002
263.150002
263.150002
263.150002
263.150001
263.150001
263.150001
263.150001
263.150001
263.150001
263.150000
263.150000
263.150000
        </DataArray>
      </PointData>
      <CellData>
      </CellData>
    </Piece>
  </UnstructuredGrid>
</VTKFile>
