<?xml version="1.0"?>
<VTKFile type="UnstructuredGrid" version="0.1" byte_order="LittleEndian">
  <UnstructuredGrid>
    <Piece NumberOfPoints="801" NumberOfCells="800">
      <Points>
        <DataArray type="Float32" NumberOfComponents="3" format="ascii">
0.000000 0.0 0.0
0.005000 0.0 0.0
0.010000 0.0 0.0
0.015000 0.0 0.0
0.020000 0.0 0.0
0.025000 0.0 0.0
0.030000 0.0 0.0
0.035000 0.0 0.0
0.040000 0.0 0.0
0.045000 0.0 0.0
0.050000 0.0 0.0
0.055000 0.0 0.0
0.060000 0.0 0.0
0.065000 0.0 0.0
0.070000 0.0 0.0
0.075000 0.0 0.0
0.080000 0.0 0.0
0.085000 0.0 0.0
0.090000 0.0 0.0
0.095000 0.0 0.0
0.100000 0.0 0.0
0.105000 0.0 0.0
0.110000 0.0 0.0
0.115000 0.0 0.0
0.120000 0.0 0.0
0.125000 0.0 0.0
0.130000 0.0 0.0
0.135000 0.0 0.0
0.140000 0.0 0.0
0.145000 0.0 0.0
0.150000 0.0 0.0
0.155000 0.0 0.0
0.160000 0.0 0.0
0.165000 0.0 0.0
0.170000 0.0 0.0
0.175000 0.0 0.0
0.180000 0.0 0.0
0.185000 0.0 0.0
0.190000 0.0 0.0
0.195000 0.0 0.0
0.200000 0.0 0.0
0.205000 0.0 0.0
0.210000 0.0 0.0
0.215000 0.0 0.0
0.220000 0.0 0.0
0.225000 0.0 0.0
0.230000 0.0 0.0
0.235000 0.0 0.0
0.240000 0.0 0.0
0.245000 0.0 0.0
0.250000 0.0 0.0
0.255000 0.0 0.0
0.260000 0.0 0.0
0.265000 0.0 0.0
0.270000 0.0 0.0
0.275000 0.0 0.0
0.280000 0.0 0.0
0.285000 0.0 0.0
0.290000 0.0 0.0
0.295000 0.0 0.0
0.300000 0.0 0.0
0.305000 0.0 0.0
0.310000 0.0 0.0
0.315000 0.0 0.0
0.320000 0.0 0.0
0.325000 0.0 0.0
0.330000 0.0 0.0
0.335000 0.0 0.0
0.340000 0.0 0.0
0.345000 0.0 0.0
0.350000 0.0 0.0
0.355000 0.0 0.0
0.360000 0.0 0.0
0.365000 0.0 0.0
0.370000 0.0 0.0
0.375000 0.0 0.0
0.380000 0.0 0.0
0.385000 0.0 0.0
0.390000 0.0 0.0
0.395000 0.0 0.0
0.400000 0.0 0.0
0.405000 0.0 0.0
0.410000 0.0 0.0
0.415000 0.0 0.0
0.420000 0.0 0.0
0.425000 0.0 0.0
0.430000 0.0 0.0
0.435000 0.0 0.0
0.440000 0.0 0.0
0.445000 0.0 0.0
0.450000 0.0 0.0
0.455000 0.0 0.0
0.460000 0.0 0.0
0.465000 0.0 0.0
0.470000 0.0 0.0
0.475000 0.0 0.0
0.480000 0.0 0.0
0.485000 0.0 0.0
0.490000 0.0 0.0
0.495000 0.0 0.0
0.500000 0.0 0.0
0.505000 0.0 0.0
0.510000 0.0 0.0
0.515000 0.0 0.0
0.520000 0.0 0.0
0.525000 0.0 0.0
0.530000 0.0 0.0
0.535000 0.0 0.0
0.540000 0.0 0.0
0.545000 0.0 0.0
0.550000 0.0 0.0
0.555000 0.0 0.0
0.560000 0.0 0.0
0.565000 0.0 0.0
0.570000 0.0 0.0
0.575000 0.0 0.0
0.580000 0.0 0.0
0.585000 0.0 0.0
0.590000 0.0 0.0
0.595000 0.0 0.0
0.600000 0.0 0.0
0.605000 0.0 0.0
0.610000 0.0 0.0
0.615000 0.0 0.0
0.620000 0.0 0.0
0.625000 0.0 0.0
0.630000 0.0 0.0
0.635000 0.0 0.0
0.640000 0.0 0.0
0.645000 0.0 0.0
0.650000 0.0 0.0
0.655000 0.0 0.0
0.660000 0.0 0.0
0.665000 0.0 0.0
0.670000 0.0 0.0
0.675000 0.0 0.0
0.680000 0.0 0.0
0.685000 0.0 0.0
0.690000 0.0 0.0
0.695000 0.0 0.0
0.700000 0.0 0.0
0.705000 0.0 0.0
0.710000 0.0 0.0
0.715000 0.0 0.0
0.720000 0.0 0.0
0.725000 0.0 0.0
0.730000 0.0 0.0
0.735000 0.0 0.0
0.740000 0.0 0.0
0.745000 0.0 0.0
0.750000 0.0 0.0
0.755000 0.0 0.0
0.760000 0.0 0.0
0.765000 0.0 0.0
0.770000 0.0 0.0
0.775000 0.0 0.0
0.780000 0.0 0.0
0.785000 0.0 0.0
0.790000 0.0 0.0
0.795000 0.0 0.0
0.800000 0.0 0.0
0.805000 0.0 0.0
0.810000 0.0 0.0
0.815000 0.0 0.0
0.820000 0.0 0.0
0.825000 0.0 0.0
0.830000 0.0 0.0
0.835000 0.0 0.0
0.840000 0.0 0.0
0.845000 0.0 0.0
0.850000 0.0 0.0
0.855000 0.0 0.0
0.860000 0.0 0.0
0.865000 0.0 0.0
0.870000 0.0 0.0
0.875000 0.0 0.0
0.880000 0.0 0.0
0.885000 0.0 0.0
0.890000 0.0 0.0
0.895000 0.0 0.0
0.900000 0.0 0.0
0.905000 0.0 0.0
0.910000 0.0 0.0
0.915000 0.0 0.0
0.920000 0.0 0.0
0.925000 0.0 0.0
0.930000 0.0 0.0
0.935000 0.0 0.0
0.940000 0.0 0.0
0.945000 0.0 0.0
0.950000 0.0 0.0
0.955000 0.0 0.0
0.960000 0.0 0.0
0.965000 0.0 0.0
0.970000 0.0 0.0
0.975000 0.0 0.0
0.980000 0.0 0.0
0.985000 0.0 0.0
0.990000 0.0 0.0
0.995000 0.0 0.0
1.000000 0.0 0.0
1.005000 0.0 0.0
1.010000 0.0 0.0
1.015000 0.0 0.0
1.020000 0.0 0.0
1.025000 0.0 0.0
1.030000 0.0 0.0
1.035000 0.0 0.0
1.040000 0.0 0.0
1.045000 0.0 0.0
1.050000 0.0 0.0
1.055000 0.0 0.0
1.060000 0.0 0.0
1.065000 0.0 0.0
1.070000 0.0 0.0
1.075000 0.0 0.0
1.080000 0.0 0.0
1.085000 0.0 0.0
1.090000 0.0 0.0
1.095000 0.0 0.0
1.100000 0.0 0.0
1.105000 0.0 0.0
1.110000 0.0 0.0
1.115000 0.0 0.0
1.120000 0.0 0.0
1.125000 0.0 0.0
1.130000 0.0 0.0
1.135000 0.0 0.0
1.140000 0.0 0.0
1.145000 0.0 0.0
1.150000 0.0 0.0
1.155000 0.0 0.0
1.160000 0.0 0.0
1.165000 0.0 0.0
1.170000 0.0 0.0
1.175000 0.0 0.0
1.180000 0.0 0.0
1.185000 0.0 0.0
1.190000 0.0 0.0
1.195000 0.0 0.0
1.200000 0.0 0.0
1.205000 0.0 0.0
1.210000 0.0 0.0
1.215000 0.0 0.0
1.220000 0.0 0.0
1.225000 0.0 0.0
1.230000 0.0 0.0
1.235000 0.0 0.0
1.240000 0.0 0.0
1.245000 0.0 0.0
1.250000 0.0 0.0
1.255000 0.0 0.0
1.260000 0.0 0.0
1.265000 0.0 0.0
1.270000 0.0 0.0
1.275000 0.0 0.0
1.280000 0.0 0.0
1.285000 0.0 0.0
1.290000 0.0 0.0
1.295000 0.0 0.0
1.300000 0.0 0.0
1.305000 0.0 0.0
1.310000 0.0 0.0
1.315000 0.0 0.0
1.320000 0.0 0.0
1.325000 0.0 0.0
1.330000 0.0 0.0
1.335000 0.0 0.0
1.340000 0.0 0.0
1.345000 0.0 0.0
1.350000 0.0 0.0
1.355000 0.0 0.0
1.360000 0.0 0.0
1.365000 0.0 0.0
1.370000 0.0 0.0
1.375000 0.0 0.0
1.380000 0.0 0.0
1.385000 0.0 0.0
1.390000 0.0 0.0
1.395000 0.0 0.0
1.400000 0.0 0.0
1.405000 0.0 0.0
1.410000 0.0 0.0
1.415000 0.0 0.0
1.420000 0.0 0.0
1.425000 0.0 0.0
1.430000 0.0 0.0
1.435000 0.0 0.0
1.440000 0.0 0.0
1.445000 0.0 0.0
1.450000 0.0 0.0
1.455000 0.0 0.0
1.460000 0.0 0.0
1.465000 0.0 0.0
1.470000 0.0 0.0
1.475000 0.0 0.0
1.480000 0.0 0.0
1.485000 0.0 0.0
1.490000 0.0 0.0
1.495000 0.0 0.0
1.500000 0.0 0.0
1.505000 0.0 0.0
1.510000 0.0 0.0
1.515000 0.0 0.0
1.520000 0.0 0.0
1.525000 0.0 0.0
1.530000 0.0 0.0
1.535000 0.0 0.0
1.540000 0.0 0.0
1.545000 0.0 0.0
1.550000 0.0 0.0
1.555000 0.0 0.0
1.560000 0.0 0.0
1.565000 0.0 0.0
1.570000 0.0 0.0
1.575000 0.0 0.0
1.580000 0.0 0.0
1.585000 0.0 0.0
1.590000 0.0 0.0
1.595000 0.0 0.0
1.600000 0.0 0.0
1.605000 0.0 0.0
1.610000 0.0 0.0
1.615000 0.0 0.0
1.620000 0.0 0.0
1.625000 0.0 0.0
1.630000 0.0 0.0
1.635000 0.0 0.0
1.640000 0.0 0.0
1.645000 0.0 0.0
1.650000 0.0 0.0
1.655000 0.0 0.0
1.660000 0.0 0.0
1.665000 0.0 0.0
1.670000 0.0 0.0
1.675000 0.0 0.0
1.680000 0.0 0.0
1.685000 0.0 0.0
1.690000 0.0 0.0
1.695000 0.0 0.0
1.700000 0.0 0.0
1.705000 0.0 0.0
1.710000 0.0 0.0
1.715000 0.0 0.0
1.720000 0.0 0.0
1.725000 0.0 0.0
1.730000 0.0 0.0
1.735000 0.0 0.0
1.740000 0.0 0.0
1.745000 0.0 0.0
1.750000 0.0 0.0
1.755000 0.0 0.0
1.760000 0.0 0.0
1.765000 0.0 0.0
1.770000 0.0 0.0
1.775000 0.0 0.0
1.780000 0.0 0.0
1.785000 0.0 0.0
1.790000 0.0 0.0
1.795000 0.0 0.0
1.800000 0.0 0.0
1.805000 0.0 0.0
1.810000 0.0 0.0
1.815000 0.0 0.0
1.820000 0.0 0.0
1.825000 0.0 0.0
1.830000 0.0 0.0
1.835000 0.0 0.0
1.840000 0.0 0.0
1.845000 0.0 0.0
1.850000 0.0 0.0
1.855000 0.0 0.0
1.860000 0.0 0.0
1.865000 0.0 0.0
1.870000 0.0 0.0
1.875000 0.0 0.0
1.880000 0.0 0.0
1.885000 0.0 0.0
1.890000 0.0 0.0
1.895000 0.0 0.0
1.900000 0.0 0.0
1.905000 0.0 0.0
1.910000 0.0 0.0
1.915000 0.0 0.0
1.920000 0.0 0.0
1.925000 0.0 0.0
1.930000 0.0 0.0
1.935000 0.0 0.0
1.940000 0.0 0.0
1.945000 0.0 0.0
1.950000 0.0 0.0
1.955000 0.0 0.0
1.960000 0.0 0.0
1.965000 0.0 0.0
1.970000 0.0 0.0
1.975000 0.0 0.0
1.980000 0.0 0.0
1.985000 0.0 0.0
1.990000 0.0 0.0
1.995000 0.0 0.0
2.000000 0.0 0.0
2.005000 0.0 0.0
2.010000 0.0 0.0
2.015000 0.0 0.0
2.020000 0.0 0.0
2.025000 0.0 0.0
2.030000 0.0 0.0
2.035000 0.0 0.0
2.040000 0.0 0.0
2.045000 0.0 0.0
2.050000 0.0 0.0
2.055000 0.0 0.0
2.060000 0.0 0.0
2.065000 0.0 0.0
2.070000 0.0 0.0
2.075000 0.0 0.0
2.080000 0.0 0.0
2.085000 0.0 0.0
2.090000 0.0 0.0
2.095000 0.0 0.0
2.100000 0.0 0.0
2.105000 0.0 0.0
2.110000 0.0 0.0
2.115000 0.0 0.0
2.120000 0.0 0.0
2.125000 0.0 0.0
2.130000 0.0 0.0
2.135000 0.0 0.0
2.140000 0.0 0.0
2.145000 0.0 0.0
2.150000 0.0 0.0
2.155000 0.0 0.0
2.160000 0.0 0.0
2.165000 0.0 0.0
2.170000 0.0 0.0
2.175000 0.0 0.0
2.180000 0.0 0.0
2.185000 0.0 0.0
2.190000 0.0 0.0
2.195000 0.0 0.0
2.200000 0.0 0.0
2.205000 0.0 0.0
2.210000 0.0 0.0
2.215000 0.0 0.0
2.220000 0.0 0.0
2.225000 0.0 0.0
2.230000 0.0 0.0
2.235000 0.0 0.0
2.240000 0.0 0.0
2.245000 0.0 0.0
2.250000 0.0 0.0
2.255000 0.0 0.0
2.260000 0.0 0.0
2.265000 0.0 0.0
2.270000 0.0 0.0
2.275000 0.0 0.0
2.280000 0.0 0.0
2.285000 0.0 0.0
2.290000 0.0 0.0
2.295000 0.0 0.0
2.300000 0.0 0.0
2.305000 0.0 0.0
2.310000 0.0 0.0
2.315000 0.0 0.0
2.320000 0.0 0.0
2.325000 0.0 0.0
2.330000 0.0 0.0
2.335000 0.0 0.0
2.340000 0.0 0.0
2.345000 0.0 0.0
2.350000 0.0 0.0
2.355000 0.0 0.0
2.360000 0.0 0.0
2.365000 0.0 0.0
2.370000 0.0 0.0
2.375000 0.0 0.0
2.380000 0.0 0.0
2.385000 0.0 0.0
2.390000 0.0 0.0
2.395000 0.0 0.0
2.400000 0.0 0.0
2.405000 0.0 0.0
2.410000 0.0 0.0
2.415000 0.0 0.0
2.420000 0.0 0.0
2.425000 0.0 0.0
2.430000 0.0 0.0
2.435000 0.0 0.0
2.440000 0.0 0.0
2.445000 0.0 0.0
2.450000 0.0 0.0
2.455000 0.0 0.0
2.460000 0.0 0.0
2.465000 0.0 0.0
2.470000 0.0 0.0
2.475000 0.0 0.0
2.480000 0.0 0.0
2.485000 0.0 0.0
2.490000 0.0 0.0
2.495000 0.0 0.0
2.500000 0.0 0.0
2.505000 0.0 0.0
2.510000 0.0 0.0
2.515000 0.0 0.0
2.520000 0.0 0.0
2.525000 0.0 0.0
2.530000 0.0 0.0
2.535000 0.0 0.0
2.540000 0.0 0.0
2.545000 0.0 0.0
2.550000 0.0 0.0
2.555000 0.0 0.0
2.560000 0.0 0.0
2.565000 0.0 0.0
2.570000 0.0 0.0
2.575000 0.0 0.0
2.580000 0.0 0.0
2.585000 0.0 0.0
2.590000 0.0 0.0
2.595000 0.0 0.0
2.600000 0.0 0.0
2.605000 0.0 0.0
2.610000 0.0 0.0
2.615000 0.0 0.0
2.620000 0.0 0.0
2.625000 0.0 0.0
2.630000 0.0 0.0
2.635000 0.0 0.0
2.640000 0.0 0.0
2.645000 0.0 0.0
2.650000 0.0 0.0
2.655000 0.0 0.0
2.660000 0.0 0.0
2.665000 0.0 0.0
2.670000 0.0 0.0
2.675000 0.0 0.0
2.680000 0.0 0.0
2.685000 0.0 0.0
2.690000 0.0 0.0
2.695000 0.0 0.0
2.700000 0.0 0.0
2.705000 0.0 0.0
2.710000 0.0 0.0
2.715000 0.0 0.0
2.720000 0.0 0.0
2.725000 0.0 0.0
2.730000 0.0 0.0
2.735000 0.0 0.0
2.740000 0.0 0.0
2.745000 0.0 0.0
2.750000 0.0 0.0
2.755000 0.0 0.0
2.760000 0.0 0.0
2.765000 0.0 0.0
2.770000 0.0 0.0
2.775000 0.0 0.0
2.780000 0.0 0.0
2.785000 0.0 0.0
2.790000 0.0 0.0
2.795000 0.0 0.0
2.800000 0.0 0.0
2.805000 0.0 0.0
2.810000 0.0 0.0
2.815000 0.0 0.0
2.820000 0.0 0.0
2.825000 0.0 0.0
2.830000 0.0 0.0
2.835000 0.0 0.0
2.840000 0.0 0.0
2.845000 0.0 0.0
2.850000 0.0 0.0
2.855000 0.0 0.0
2.860000 0.0 0.0
[...]
      <PointData Scalars="Temperature">
        <DataArray type="Float32" Name="Temperature" format="ascii">
308.150000
307.068448
305.987185
304.906499
303.826680
302.748014
301.670788
300.595287
299.521796
298.450597
297.381971
296.316197
295.253551
294.194306
293.138735
292.087105
291.039683
289.996731
288.958507
287.925268
286.897265
285.874747
284.857959
283.847142
282.842534
281.844369
280.852878
279.868288
278.890824
277.920709
276.958163
276.003404
275.056756
274.129103
273.437315
273.134372
272.969872
272.854036
272.761011
272.680735
272.608376
272.541277
272.477839
272.417034
272.358174
272.300776
272.244496
272.189086
272.134359
272.080177
272.026436
271.973057
271.919979
271.867156
271.814554
271.762146
271.709911
271.657833
271.605901
271.554107
271.502443
271.450906
271.399491
271.348197
271.297022
271.245966
271.195027
271.144208
271.093507
271.042926
270.992465
270.942126
270.891909
270.841816
270.791848
270.742007
270.692293
270.642709
270.593255
270.543933
270.494744
270.445690
270.396772
270.347991
270.299349
270.250848
270.202488
270.154270
270.106197
270.058270
270.010489
269.962857
269.915373
269.868041
269.820860
269.773833
269.726960
269.680242
269.633682
269.587279
269.541035
269.494952
269.449030
269.403271
269.357675
269.312244
269.266978
269.221880
269.176949
269.132187
269.087595
269.043174
268.998925
268.954848
268.910945
268.867217
268.823664
268.780288
268.737089
268.694068
268.651226
268.608564
268.566083
268.523783
268.481665
268.439730
268.397979
268.356412
268.315030
268.273834
268.232825
268.192002
268.151368
268.110921
268.070664
268.030597
267.990719
267.951032
267.911536
267.872233
267.833121
267.794202
267.755476
267.716944
267.678607
267.640463
267.602515
267.564762
267.527204
267.489843
267.452678
267.415710
267.378939
267.342365
267.305989
267.269810
267.233830
267.198048
267.162465
267.127080
267.091894
267.056907
267.022120
266.987532
266.953143
266.918954
266.884965
266.851175
266.817585
266.784195
266.751005
266.718015
266.685224
266.652634
266.620243
266.588052
266.556061
266.524269
266.492677
266.461284
266.430091
266.399097
266.368302
266.337706
266.307308
266.277109
266.247109
266.217306
266.187702
266.158295
266.129085
266.100073
266.071257
266.042638
266.014216
265.985989
265.957958
265.930122
265.902481
265.875035
265.847783
265.820724
265.793859
265.767187
265.740708
265.714421
265.688325
265.662421
265.636707
265.611184
265.585851
265.560706
265.535751
265.510984
265.486405
265.462013
265.437808
265.413789
265.389955
265.366306
265.342842
265.319562
265.296465
265.273550
265.250818
265.228267
265.205896
265.183706
265.161695
265.139863
265.118209
265.096732
265.075432
265.054309
265.033360
265.012586
264.991987
264.971560
264.951306
264.931224
264.911313
264.891572
264.872001
264.852598
264.833364
264.814296
264.795396
264.776661
264.758091
264.739685
264.721443
264.703363
264.685445
264.667687
264.650090
264.632653
264.615373
264.598252
264.581287
264.564479
264.547825
264.531326
264.514981
264.498788
264.482747
264.466857
264.451117
264.435526
264.420084
264.404789
264.389641
264.374639
264.359781
264.345068
264.330498
264.316070
264.301783
264.287638
264.273631
264.259764
264.246034
264.232442
264.218986
264.205664
264.192478
264.179424
264.166504
264.153715
264.141056
264.128528
264.116129
264.103858
264.091714
264.079696
264.067804
264.056036
264.044393
264.032871
264.021472
264.010194
263.999036
263.987997
263.977077
263.966274
263.955587
263.945016
263.934561
263.924219
263.913990
263.903873
263.893868
263.883973
263.874187
263.864510
263.854941
263.845479
263.836124
263.826873
263.817727
263.808684
263.799744
263.790906
263.782168
263.773531
263.764993
263.756553
263.748211
263.739966
263.731817
263.723763
263.715802
263.707936
263.700162
263.692480
263.684888
263.677387
263.669975
263.662652
263.655417
263.648268
263.641205
263.634228
263.627336
263.620527
263.613801
263.607157
263.600595
263.594113
263.587712
263.581389
263.575145
263.568978
263.562888
263.556875
263.550936
263.545073
263.539283
263.533566
263.527922
263.522350
263.516848
263.511417
263.506055
263.500762
263.495538
263.490381
263.485290
263.480266
263.475307
263.470412
263.465582
263.460815
263.456111
263.451469
263.446888
263.442367
263.437907
263.433507
263.429165
263.424881
263.420655
263.416485
263.412372
263.408314
263.404312
263.400364
263.396469
263.392628
263.388840
263.385103
263.381418
263.377784
263.374200
263.370666
263.367180
263.363744
263.360355
263.357014
263.353720
263.350472
263.347269
263.344112
263.341000
263.337932
263.334908
263.331927
263.328988
263.326092
263.323237
263.320423
263.317650
263.314917
263.312224
263.309570
263.306955
263.304377
263.301838
263.299335
263.296870
263.294441
263.292048
263.289690
263.287367
263.285079
263.282824
263.280604
263.278417
263.276262
263.274140
263.272050
263.269991
263.267964
263.265967
263.264001
263.262065
263.260158
263.258281
263.256432
263.254612
263.252819
263.251055
263.249317
263.247607
263.245923
263.244266
263.242634
263.241028
263.239447
263.237890
263.236359
263.234851
263.233367
263.231907
263.230470
263.229055
263.227664
263.226294
263.224946
263.223620
263.222316
263.221032
263.219769
263.218526
263.217304
263.216101
263.214918
263.213754
263.212609
263.211483
263.210375
263.209286
263.208214
263.207160
263.206124
263.205104
263.204102
263.203116
263.202147
263.201193
263.200256
263.199334
263.198428
263.197537
263.196661
263.195800
263.194954
263.194121
263.193303
263.192499
263.191709
263.190932
263.190168
263.189417
263.188679
263.187954
263.187242
263.186541
263.185853
263.185177
263.184512
263.183859
263.183218
263.182587
263.181968
263.181359
263.180762
263.180174
263.179597
263.179030
263.178473
263.177927
263.177389
263.176862
263.176343
263.175834
263.175334
263.174843
263.174361
263.173887
263.173422
263.172966
263.172517
263.172077
263.171644
263.171220
263.170803
263.170394
263.169992
263.169598
263.169211
263.168830
263.168457
263.168091
263.167732
263.167379
263.167032
263.166693
263.166359
263.166032
263.165710
263.165395
263.165086
263.164782
263.164484
263.164192
263.163905
263.163623
263.163347
263.163076
263.162810
263.162550
263.162294
263.162043
263.161797
263.161555
263.161318
263.161086
263.160858
263.160635
263.160416
263.160201
263.159990
263.159783
263.159580
263.159382
263.159187
263.158995
263.158808
263.158624
263.158444
263.158267
263.158094
263.157924
263.157758
263.157595
263.157435
263.157278
263.157124
263.156974
263.156826
263.156681
263.156539
263.156400
263.156264
263.156131
263.156000
263.155872
263.155746
263.155623
263.155502
263.155384
263.155268
263.155155
263.155044
263.154935
263.154828
263.154724
263.154621
263.154521
263.154423
263.154326
263.154232
263.154140
263.154049
263.153961
263.153874
263.153789
263.153706
263.153625
263.153545
263.153467
263.153390
263.153315
263.153242
263.153170
263.153100
263.153031
263.152964
263.152898
263.152833
263.152770
263.152708
263.152647
263.152588
263.152530
263.152473
263.152418
263.152363
263.152310
263.152258
263.152207
263.152157
263.152108
263.152060
263.152014
263.151968
263.151923
263.151879
263.151836
263.151795
263.151754
263.151713
263.151674
263.151636
263.151598
263.151561
263.151525
263.151490
263.151456
263.151422
263.151389
263.151357
263.151326
263.151295
263.151265
263.151235
263.151207
263.151178
263.151151
263.151124
263.151098
263.151072
263.151047
263.151022
263.150998
263.150975
263.150952
263.150929
263.150907
263.150886
263.150865
263.150844
263.150824
263.150804
263.150785
263.150767
263.150748
263.150730
263.150713
263.150696
263.150679
263.150663
263.150647
263.150631
263.150616
263.150601
263.150587
263.150572
263.150559
263.150545
263.150532
263.150519
263.150506
263.150494
263.150482
263.150470
263.150458
263.150447
263.150436
263.150425
263.150415
263.150405
263.150395
263.150385
263.150375
263.150366
263.150357
263.150348
263.150339
263.150331
263.150322
263.150314
263.150306
263.150299
263.150291
263.150284
263.150277
263.150269
263.150263
263.150256
263.150249
263.150243
263.150237
263.150231
263.150225
263.150219
263.150213
263.150207
263.150202
263.150197
263.150192
263.150186
263.150182
263.150177
263.150172
263.150167
263.150163
263.150158
263.150154
263.150150
263.150146
263.150142
263.150138
263.150134
263.150130
263.150126
263.150123
263.150119
263.150116
263.150113
263.150109
263.150106
263.150103
263.150100
263.150097
263.150094
263.150091
263.150088
263.150085
263.150082
263.150080
263.150077
263.150075
263.150072
263.150070
263.150067
263.150065
263.150062
263.150060
263.150058
263.150056
263.150053
263.150051
263.150049
263.150047
263.150045
263.150043
263.150041
263.150039
263.150037
263.150035
263.150033
263.150031
263.150029
263.150028
263.150026
263.150024
263.150022
263.150020
263.150019
263.150017
263.150015
263.150014
263.150012
263.150010
263.150008
263.150007
263.150005
263.150003
263.150002
263.150000
        </DataArray>
      </PointData>
      <CellData>
      </CellData>
    </Piece>
  </UnstructuredGrid>
</VTKFile>
