<?xml version="1.0"?>
<VTKFile type="UnstructuredGrid" version="0.1" byte_order="LittleEndian">
  <UnstructuredGrid>
    <Piece NumberOfPoints="801" NumberOfCells="800">
      <Points>
        <DataArray type="Float32" NumberOfComponents="3" format="ascii">
0.000000 0.0 0.0
0.005000 0.0 0.0
0.010000 0.0 0.0
0.015000 0.0 0.0
0.020000 0.0 0.0
0.025000 0.0 0.0
0.030000 0.0 0.0
0.035000 0.0 0.0
0.040000 0.0 0.0
0.045000 0.0 0.0
0.050000 0.0 0.0
0.055000 0.0 0.0
0.060000 0.0 0.0
0.065000 0.0 0.0
0.070000 0.0 0.0
0.075000 0.0 0.0
0.080000 0.0 0.0
0.085000 0.0 0.0
0.090000 0.0 0.0
0.095000 0.0 0.0
0.100000 0.0 0.0
0.105000 0.0 0.0
0.110000 0.0 0.0
0.115000 0.0 0.0
0.120000 0.0 0.0
0.125000 0.0 0.0
0.130000 0.0 0.0
0.135000 0.0 0.0
0.140000 0.0 0.0
0.145000 0.0 0.0
0.150000 0.0 0.0
0.155000 0.0 0.0
0.160000 0.0 0.0
0.165000 0.0 0.0
0.170000 0.0 0.0
0.175000 0.0 0.0
0.180000 0.0 0.0
0.185000 0.0 0.0
0.190000 0.0 0.0
0.195000 0.0 0.0
0.200000 0.0 0.0
0.205000 0.0 0.0
0.210000 0.0 0.0
0.215000 0.0 0.0
0.220000 0.0 0.0
0.225000 0.0 0.0
0.230000 0.0 0.0
0.235000 0.0 0.0
0.240000 0.0 0.0
0.245000 0.0 0.0
0.250000 0.0 0.0
0.255000 0.0 0.0
0.260000 0.0 0.0
0.265000 0.0 0.0
0.270000 0.0 0.0
0.275000 0.0 0.0
0.280000 0.0 0.0
0.285000 0.0 0.0
0.290000 0.0 0.0
0.295000 0.0 0.0
0.300000 0.0 0.0
0.305000 0.0 0.0
0.310000 0.0 0.0
0.315000 0.0 0.0
0.320000 0.0 0.0
0.325000 0.0 0.0
0.330000 0.0 0.0
0.335000 0.0 0.0
0.340000 0.0 0.0
0.345000 0.0 0.0
0.350000 0.0 0.0
0.355000 0.0 0.0
0.360000 0.0 0.0
0.365000 0.0 0.0
0.370000 0.0 0.0
0.375000 0.0 0.0
0.380000 0.0 0.0
0.385000 0.0 0.0
0.390000 0.0 0.0
0.395000 0.0 0.0
0.400000 0.0 0.0
0.405000 0.0 0.0
0.410000 0.0 0.0
0.415000 0.0 0.0
0.420000 0.0 0.0
0.425000 0.0 0.0
0.430000 0.0 0.0
0.435000 0.0 0.0
0.440000 0.0 0.0
0.445000 0.0 0.0
0.450000 0.0 0.0
0.455000 0.0 0.0
0.460000 0.0 0.0
0.465000 0.0 0.0
0.470000 0.0 0.0
0.475000 0.0 0.0
0.480000 0.0 0.0
0.485000 0.0 0.0
0.490000 0.0 0.0
0.495000 0.0 0.0
0.500000 0.0 0.0
0.505000 0.0 0.0
0.510000 0.0 0.0
0.515000 0.0 0.0
0.520000 0.0 0.0
0.525000 0.0 0.0
0.530000 0.0 0.0
0.535000 0.0 0.0
0.540000 0.0 0.0
0.545000 0.0 0.0
0.550000 0.0 0.0
0.555000 0.0 0.0
0.560000 0.0 0.0
0.565000 0.0 0.0
0.570000 0.0 0.0
0.575000 0.0 0.0
0.580000 0.0 0.0
0.585000 0.0 0.0
0.590000 0.0 0.0
0.595000 0.0 0.0
0.600000 0.0 0.0
0.605000 0.0 0.0
0.610000 0.0 0.0
0.615000 0.0 0.0
0.620000 0.0 0.0
0.625000 0.0 0.0
0.630000 0.0 0.0
0.635000 0.0 0.0
0.640000 0.0 0.0
0.645000 0.0 0.0
0.650000 0.0 0.0
0.655000 0.0 0.0
0.660000 0.0 0.0
0.665000 0.0 0.0
0.670000 0.0 0.0
0.675000 0.0 0.0
0.680000 0.0 0.0
0.685000 0.0 0.0
0.690000 0.0 0.0
0.695000 0.0 0.0
0.700000 0.0 0.0
0.705000 0.0 0.0
0.710000 0.0 0.0
0.715000 0.0 0.0
0.720000 0.0 0.0
0.725000 0.0 0.0
0.730000 0.0 0.0
0.735000 0.0 0.0
0.740000 0.0 0.0
0.745000 0.0 0.0
0.750000 0.0 0.0
0.755000 0.0 0.0
0.760000 0.0 0.0
0.765000 0.0 0.0
0.770000 0.0 0.0
0.775000 0.0 0.0
0.780000 0.0 0.0
0.785000 0.0 0.0
0.790000 0.0 0.0
0.795000 0.0 0.0
0.800000 0.0 0.0
0.805000 0.0 0.0
0.810000 0.0 0.0
0.815000 0.0 0.0
0.820000 0.0 0.0
0.825000 0.0 0.0
0.830000 0.0 0.0
0.835000 0.0 0.0
0.840000 0.0 0.0
0.845000 0.0 0.0
0.850000 0.0 0.0
0.855000 0.0 0.0
0.860000 0.0 0.0
0.865000 0.0 0.0
0.870000 0.0 0.0
0.875000 0.0 0.0
0.880000 0.0 0.0
0.885000 0.0 0.0
0.890000 0.0 0.0
0.895000 0.0 0.0
0.900000 0.0 0.0
0.905000 0.0 0.0
0.910000 0.0 0.0
0.915000 0.0 0.0
0.920000 0.0 0.0
0.925000 0.0 0.0
0.930000 0.0 0.0
0.935000 0.0 0.0
0.940000 0.0 0.0
0.945000 0.0 0.0
0.950000 0.0 0.0
0.955000 0.0 0.0
0.960000 0.0 0.0
0.965000 0.0 0.0
0.970000 0.0 0.0
0.975000 0.0 0.0
0.980000 0.0 0.0
0.985000 0.0 0.0
0.990000 0.0 0.0
0.995000 0.0 0.0
1.000000 0.0 0.0
1.005000 0.0 0.0
1.010000 0.0 0.0
1.015000 0.0 0.0
1.020000 0.0 0.0
1.025000 0.0 0.0
1.030000 0.0 0.0
1.035000 0.0 0.0
1.040000 0.0 0.0
1.045000 0.0 0.0
1.050000 0.0 0.0
1.055000 0.0 0.0
1.060000 0.0 0.0
1.065000 0.0 0.0
1.070000 0.0 0.0
1.075000 0.0 0.0
1.080000 0.0 0.0
1.085000 0.0 0.0
1.090000 0.0 0.0
1.095000 0.0 0.0
1.100000 0.0 0.0
1.105000 0.0 0.0
1.110000 0.0 0.0
1.115000 0.0 0.0
1.120000 0.0 0.0
1.125000 0.0 0.0
1.130000 0.0 0.0
1.135000 0.0 0.0
1.140000 0.0 0.0
1.145000 0.0 0.0
1.150000 0.0 0.0
1.155000 0.0 0.0
1.160000 0.0 0.0
1.165000 0.0 0.0
1.170000 0.0 0.0
1.175000 0.0 0.0
1.180000 0.0 0.0
1.185000 0.0 0.0
1.190000 0.0 0.0
1.195000 0.0 0.0
1.200000 0.0 0.0
1.205000 0.0 0.0
1.210000 0.0 0.0
1.215000 0.0 0.0
1.220000 0.0 0.0
1.225000 0.0 0.0
1.230000 0.0 0.0
1.235000 0.0 0.0
1.240000 0.0 0.0
1.245000 0.0 0.0
1.250000 0.0 0.0
1.255000 0.0 0.0
1.260000 0.0 0.0
1.265000 0.0 0.0
1.270000 0.0 0.0
1.275000 0.0 0.0
1.280000 0.0 0.0
1.285000 0.0 0.0
1.290000 0.0 0.0
1.295000 0.0 0.0
1.300000 0.0 0.0
1.305000 0.0 0.0
1.310000 0.0 0.0
1.315000 0.0 0.0
1.320000 0.0 0.0
1.325000 0.0 0.0
1.330000 0.0 0.0
1.335000 0.0 0.0
1.340000 0.0 0.0
1.345000 0.0 0.0
1.350000 0.0 0.0
1.355000 0.0 0.0
1.360000 0.0 0.0
1.365000 0.0 0.0
1.370000 0.0 0.0
1.375000 0.0 0.0
1.380000 0.0 0.0
1.385000 0.0 0.0
1.390000 0.0 0.0
1.395000 0.0 0.0
1.400000 0.0 0.0
1.405000 0.0 0.0
1.410000 0.0 0.0
1.415000 0.0 0.0
1.420000 0.0 0.0
1.425000 0.0 0.0
1.430000 0.0 0.0
1.435000 0.0 0.0
1.440000 0.0 0.0
1.445000 0.0 0.0
1.450000 0.0 0.0
1.455000 0.0 0.0
1.460000 0.0 0.0
1.465000 0.0 0.0
1.470000 0.0 0.0
1.475000 0.0 0.0
1.480000 0.0 0.0
1.485000 0.0 0.0
1.490000 0.0 0.0
1.495000 0.0 0.0
1.500000 0.0 0.0
1.505000 0.0 0.0
1.510000 0.0 0.0
1.515000 0.0 0.0
1.520000 0.0 0.0
1.525000 0.0 0.0
1.530000 0.0 0.0
1.535000 0.0 0.0
1.540000 0.0 0.0
1.545000 0.0 0.0
1.550000 0.0 0.0
1.555000 0.0 0.0
1.560000 0.0 0.0
1.565000 0.0 0.0
1.570000 0.0 0.0
1.575000 0.0 0.0
1.580000 0.0 0.0
1.585000 0.0 0.0
1.590000 0.0 0.0
1.595000 0.0 0.0
1.600000 0.0 0.0
1.605000 0.0 0.0
1.610000 0.0 0.0
1.615000 0.0 0.0
1.620000 0.0 0.0
1.625000 0.0 0.0
1.630000 0.0 0.0
1.635000 0.0 0.0
1.640000 0.0 0.0
1.645000 0.0 0.0
1.650000 0.0 0.0
1.655000 0.0 0.0
1.660000 0.0 0.0
1.665000 0.0 0.0
1.670000 0.0 0.0
1.675000 0.0 0.0
1.680000 0.0 0.0
1.685000 0.0 0.0
1.690000 0.0 0.0
1.695000 0.0 0.0
1.700000 0.0 0.0
1.705000 0.0 0.0
1.710000 0.0 0.0
1.715000 0.0 0.0
1.720000 0.0 0.0
1.725000 0.0 0.0
1.730000 0.0 0.0
1.735000 0.0 0.0
1.740000 0.0 0.0
1.745000 0.0 0.0
1.750000 0.0 0.0
1.755000 0.0 0.0
1.760000 0.0 0.0
1.765000 0.0 0.0
1.770000 0.0 0.0
1.775000 0.0 0.0
1.780000 0.0 0.0
1.785000 0.0 0.0
1.790000 0.0 0.0
1.795000 0.0 0.0
1.800000 0.0 0.0
1.805000 0.0 0.0
1.810000 0.0 0.0
1.815000 0.0 0.0
1.820000 0.0 0.0
1.825000 0.0 0.0
1.830000 0.0 0.0
1.835000 0.0 0.0
1.840000 0.0 0.0
1.845000 0.0 0.0
1.850000 0.0 0.0
1.855000 0.0 0.0
1.860000 0.0 0.0
1.865000 0.0 0.0
1.870000 0.0 0.0
1.875000 0.0 0.0
1.880000 0.0 0.0
1.885000 0.0 0.0
1.890000 0.0 0.0
1.895000 0.0 0.0
1.900000 0.0 0.0
1.905000 0.0 0.0
1.910000 0.0 0.0
1.915000 0.0 0.0
1.920000 0.0 0.0
1.925000 0.0 0.0
1.930000 0.0 0.0
1.935000 0.0 0.0
1.940000 0.0 0.0
1.945000 0.0 0.0
1.950000 0.0 0.0
1.955000 0.0 0.0
1.960000 0.0 0.0
1.965000 0.0 0.0
1.970000 0.0 0.0
1.975000 0.0 0.0
1.980000 0.0 0.0
1.985000 0.0 0.0
1.990000 0.0 0.0
1.995000 0.0 0.0
2.000000 0.0 0.0
2.005000 0.0 0.0
2.010000 0.0 0.0
2.015000 0.0 0.0
2.020000 0.0 0.0
2.025000 0.0 0.0
2.030000 0.0 0.0
2.035000 0.0 0.0
2.040000 0.0 0.0
2.045000 0.0 0.0
2.050000 0.0 0.0
2.055000 0.0 0.0
2.060000 0.0 0.0
2.065000 0.0 0.0
2.070000 0.0 0.0
2.075000 0.0 0.0
2.080000 0.0 0.0
2.085000 0.0 0.0
2.090000 0.0 0.0
2.095000 0.0 0.0
2.100000 0.0 0.0
2.105000 0.0 0.0
2.110000 0.0 0.0
2.115000 0.0 0.0
2.120000 0.0 0.0
2.125000 0.0 0.0
2.130000 0.0 0.0
2.135000 0.0 0.0
2.140000 0.0 0.0
2.145000 0.0 0.0
2.150000 0.0 0.0
2.155000 0.0 0.0
2.160000 0.0 0.0
2.165000 0.0 0.0
2.170000 0.0 0.0
2.175000 0.0 0.0
2.180000 0.0 0.0
2.185000 0.0 0.0
2.190000 0.0 0.0
2.195000 0.0 0.0
2.200000 0.0 0.0
2.205000 0.0 0.0
2.210000 0.0 0.0
2.215000 0.0 0.0
2.220000 0.0 0.0
2.225000 0.0 0.0
2.230000 0.0 0.0
2.235000 0.0 0.0
2.240000 0.0 0.0
2.245000 0.0 0.0
2.250000 0.0 0.0
2.255000 0.0 0.0
2.260000 0.0 0.0
2.265000 0.0 0.0
2.270000 0.0 0.0
2.275000 0.0 0.0
2.280000 0.0 0.0
2.285000 0.0 0.0
2.290000 0.0 0.0
2.295000 0.0 0.0
2.300000 0.0 0.0
2.305000 0.0 0.0
2.310000 0.0 0.0
2.315000 0.0 0.0
2.320000 0.0 0.0
2.325000 0.0 0.0
2.330000 0.0 0.0
2.335000 0.0 0.0
2.340000 0.0 0.0
2.345000 0.0 0.0
2.350000 0.0 0.0
2.355000 0.0 0.0
2.360000 0.0 0.0
2.365000 0.0 0.0
2.370000 0.0 0.0
2.375000 0.0 0.0
2.380000 0.0 0.0
2.385000 0.0 0.0
2.390000 0.0 0.0
2.395000 0.0 0.0
2.400000 0.0 0.0
2.405000 0.0 0.0
2.410000 0.0 0.0
2.415000 0.0 0.0
2.420000 0.0 0.0
2.425000 0.0 0.0
2.430000 0.0 0.0
2.435000 0.0 0.0
2.440000 0.0 0.0
2.445000 0.0 0.0
2.450000 0.0 0.0
2.455000 0.0 0.0
2.460000 0.0 0.0
2.465000 0.0 0.0
2.470000 0.0 0.0
2.475000 0.0 0.0
2.480000 0.0 0.0
2.485000 0.0 0.0
2.490000 0.0 0.0
2.495000 0.0 0.0
2.500000 0.0 0.0
2.505000 0.0 0.0
2.510000 0.0 0.0
2.515000 0.0 0.0
2.520000 0.0 0.0
2.525000 0.0 0.0
2.530000 0.0 0.0
2.535000 0.0 0.0
2.540000 0.0 0.0
2.545000 0.0 0.0
2.550000 0.0 0.0
2.555000 0.0 0.0
2.560000 0.0 0.0
2.565000 0.0 0.0
2.570000 0.0 0.0
2.575000 0.0 0.0
2.580000 0.0 0.0
2.585000 0.0 0.0
2.590000 0.0 0.0
2.595000 0.0 0.0
2.600000 0.0 0.0
2.605000 0.0 0.0
2.610000 0.0 0.0
2.615000 0.0 0.0
2.620000 0.0 0.0
2.625000 0.0 0.0
2.630000 0.0 0.0
2.635000 0.0 0.0
2.640000 0.0 0.0
2.645000 0.0 0.0
2.650000 0.0 0.0
2.655000 0.0 0.0
2.660000 0.0 0.0
2.665000 0.0 0.0
2.670000 0.0 0.0
2.675000 0.0 0.0
2.680000 0.0 0.0
2.685000 0.0 0.0
2.690000 0.0 0.0
2.695000 0.0 0.0
2.700000 0.0 0.0
2.705000 0.0 0.0
2.710000 0.0 0.0
2.715000 0.0 0.0
2.720000 0.0 0.0
2.725000 0.0 0.0
2.730000 0.0 0.0
2.735000 0.0 0.0
2.740000 0.0 0.0
2.745000 0.0 0.0
2.750000 0.0 0.0
2.755000 0.0 0.0
2.760000 0.0 0.0
2.765000 0.0 0.0
2.770000 0.0 0.0
2.775000 0.0 0.0
2.780000 0.0 0.0
2.785000 0.0 0.0
2.790000 0.0 0.0
2.795000 0.0 0.0
2.800000 0.0 0.0
2.805000 0.0 0.0
2.810000 0.0 0.0
2.815000 0.0 0.0
2.820000 0.0 0.0
2.825000 0.0 0.0
2.830000 0.0 0.0
2.835000 0.0 0.0
2.840000 0.0 0.0
2.845000 0.0 0.0
2.850000 0.0 0.0
2.855000 0.0 0.0
2.860000 0.0 0.0
[...]
      <PointData Scalars="Temperature">
        <DataArray type="Float32" Name="Temperature" format="ascii">
308.150000
307.056836
305.963970
304.871701
303.780325
302.690140
301.601442
300.514525
299.429683
298.347206
297.267386
296.190509
295.116860
294.046723
292.980376
291.918096
290.860156
289.806826
288.758371
287.715052
286.677127
285.644846
284.618458
283.598204
282.584319
281.577033
280.576571
279.583149
278.596977
277.618260
276.647193
275.683972
274.729319
273.826278
273.298309
273.064173
272.921787
272.815490
272.727400
272.649931
272.579234
272.513115
272.450221
272.389667
272.330849
272.273345
272.216850
272.161141
272.106054
272.051465
271.997280
271.943429
271.889858
271.836527
271.783404
271.730467
271.677696
271.625078
271.572604
271.520266
271.468059
271.415978
271.364021
271.312186
271.260473
271.208881
271.157410
271.106060
271.054833
271.003729
270.952748
270.901894
270.851165
270.800565
270.750094
270.699753
270.649544
270.599469
270.549529
270.499724
270.450058
270.400531
270.351144
270.301900
270.252799
270.203842
270.155033
270.106370
270.057857
270.009494
269.961283
269.913225
269.865321
269.817573
269.769982
269.722549
269.675276
269.628163
269.581212
269.534425
269.487801
269.441343
269.395052
269.348929
269.302974
269.257190
269.211576
269.166135
269.120867
269.075773
269.030855
268.986112
268.941547
268.897161
268.852953
268.808926
268.765079
268.721415
268.677933
268.634635
268.591522
268.548594
268.505852
268.463297
268.420930
268.378752
268.336762
268.294963
268.253354
268.211937
268.170711
268.129679
268.088840
268.048194
268.007744
267.967488
267.927428
267.887564
267.847898
267.808428
267.769156
267.730083
267.691208
267.652532
267.614056
267.575780
267.537705
267.499830
267.462157
267.424685
267.387414
267.350346
267.313480
267.276817
267.240357
267.204100
267.168046
267.132197
267.096550
267.061108
267.025870
266.990836
266.956007
266.921382
266.886962
266.852746
266.818735
266.784929
266.751328
266.717931
266.684740
266.651753
266.618971
266.586393
266.554020
266.521852
266.489888
266.458129
266.426574
266.395223
266.364076
266.333133
266.302393
266.271857
266.241524
266.211394
266.181467
266.151742
266.122219
266.092899
266.063780
266.034862
266.006146
265.977630
265.949314
265.921199
265.893283
265.865567
265.838049
265.810730
265.783608
265.756685
265.729958
265.703429
265.677095
265.650957
265.625015
265.599268
265.573714
265.548355
265.523188
265.498215
265.473433
265.448843
265.424445
265.400236
265.376217
265.352388
265.328747
265.305295
265.282029
265.258951
265.236058
265.213351
265.190829
265.168490
265.146336
265.124364
265.102574
265.080965
265.059537
265.038289
265.017220
264.996329
264.975616
264.955080
264.934720
264.914536
264.894526
264.874690
264.855028
264.835537
264.816218
264.797070
264.778092
264.759282
264.740642
264.722168
264.703861
264.685720
264.667744
264.649932
264.632283
264.614797
264.597472
264.580308
264.563304
264.546459
264.529772
264.513242
264.496868
264.480650
264.464587
264.448677
264.432920
264.417315
264.401861
264.386557
264.371403
264.356396
264.341537
264.326825
264.312258
264.297836
264.283558
264.269422
264.255428
264.241576
264.227863
264.214290
264.200855
264.187558
264.174396
264.161371
264.148479
264.135722
264.123097
264.110604
264.098242
264.086010
264.073907
264.061932
264.050084
264.038363
264.026767
264.015295
264.003947
263.992721
263.981617
263.970634
263.959770
263.949026
263.938399
263.927890
263.917496
263.907218
263.897054
263.887004
263.877066
263.867240
263.857525
263.847919
263.838423
263.829034
263.819753
263.810577
263.801508
263.792542
263.783681
263.774922
263.766264
263.757708
263.749252
263.740895
263.732637
263.724475
263.716411
263.708442
263.700569
263.692789
263.685103
263.677509
263.670006
263.662594
263.655272
263.648039
263.640895
263.633837
263.626867
263.619982
263.613182
263.606466
263.599833
263.593283
263.586815
263.580428
263.574121
263.567893
263.561744
263.555673
263.549678
263.543760
263.537918
263.532150
263.526457
263.520836
263.515288
263.509812
263.504407
263.499072
263.493807
263.488611
263.483483
263.478422
263.473428
263.468500
263.463637
263.458839
263.454105
263.449434
263.444826
263.440279
263.435794
263.431369
263.427004
263.422699
263.418452
263.414263
263.410131
263.406056
263.402036
263.398073
263.394163
263.390309
263.386507
263.382759
263.379062
263.375418
263.371824
263.368281
263.364788
263.361344
263.357950
263.354603
263.351304
263.348051
263.344846
263.341686
263.338572
263.335502
263.332477
263.329496
263.326558
263.323662
263.320809
263.317998
263.315227
263.312497
263.309808
263.307158
263.304547
263.301975
263.299441
263.296945
263.294486
263.292064
263.289678
263.287327
263.285013
263.282733
263.280488
263.278276
263.276098
263.273954
263.271842
263.269762
263.267715
263.265698
263.263713
263.261758
263.259834
263.257939
263.256074
263.254238
263.252430
263.250651
263.248900
263.247176
263.245479
263.243809
263.242165
263.240547
263.238955
263.237389
263.235847
263.234330
263.232837
263.231368
263.229923
263.228501
263.227101
263.225725
263.224371
263.223038
263.221728
263.220439
263.219170
263.217923
263.216696
263.215489
263.214302
263.213135
263.211987
263.210858
263.209748
263.208656
263.207582
263.206527
263.205489
263.204468
263.203465
263.202478
263.201508
263.200555
263.199617
263.198696
263.197790
263.196899
263.196024
263.195164
263.194318
263.193487
263.192671
263.191868
263.191079
263.190304
263.189542
263.188794
263.188058
263.187336
263.186626
263.185928
263.185243
263.184569
263.183908
263.183258
263.182619
263.181992
263.181376
263.180771
263.180177
263.179593
263.179020
263.178457
263.177904
263.177361
263.176827
263.176304
263.175789
263.175284
263.174789
263.174302
263.173824
263.173355
263.172894
263.172442
263.171998
263.171562
263.171134
263.170714
263.170302
263.169897
263.169500
263.169110
263.168727
263.168352
263.167983
263.167622
263.167267
263.166919
263.166577
263.166242
263.165913
263.165590
263.165273
263.164963
263.164658
263.164359
263.164066
263.163778
263.163496
263.163219
263.162947
263.162681
263.162420
263.162163
263.161912
263.161666
263.161424
263.161187
263.160955
263.160727
263.160503
263.160284
263.160069
263.159859
263.159652
263.159450
263.159251
263.159057
263.158866
263.158679
263.158495
263.158316
263.158140
263.157967
263.157798
263.157632
263.157470
263.157310
263.157154
263.157001
263.156851
263.156705
263.156561
263.156420
263.156281
263.156146
263.156013
263.155884
263.155756
263.155632
263.155509
263.155390
263.155272
263.155158
263.155045
263.154935
263.154827
263.154721
263.154618
263.154517
263.154417
263.154320
263.154225
263.154132
263.154041
263.153951
263.153864
263.153778
263.153694
263.153612
263.153532
263.153453
263.153376
263.153300
263.153227
263.153154
263.153084
263.153014
263.152947
263.152880
263.152815
263.152752
263.152690
263.152629
263.152569
263.152511
263.152454
263.152398
263.152344
263.152290
263.152238
263.152187
263.152137
263.152088
263.152040
263.151993
263.151947
263.151902
263.151859
263.151816
263.151774
263.151733
263.151693
263.151653
263.151615
263.151577
263.151541
263.151505
263.151470
263.151435
263.151402
263.151369
263.151337
263.151306
263.151275
263.151245
263.151216
263.151187
263.151159
263.151132
263.151105
263.151079
263.151053
263.151028
263.151004
263.150980
263.150956
263.150934
263.150911
263.150890
263.150868
263.150847
263.150827
263.150807
263.150788
263.150769
263.150750
263.150732
263.150714
263.150697
263.150680
263.150664
263.150648
263.150632
263.150617
263.150602
263.150587
263.150572
263.150558
263.150545
263.150531
263.150518
263.150506
263.150493
263.150481
263.150469
263.150458
263.150446
263.150435
263.150424
263.150414
263.150404
263.150393
263.150384
263.150374
263.150365
263.150356
263.150347
263.150338
263.150329
263.150321
263.150313
263.150305
263.150297
263.150290
263.150282
263.150275
263.150268
263.150261
263.150255
263.150248
263.150242
263.150236
263.150229
263.150224
263.150218
263.150212
263.150207
263.150201
263.150196
263.150191
263.150186
263.150181
263.150176
263.150171
263.150167
263.150162
263.150158
263.150154
263.150150
263.150146
263.150142
263.150138
263.150134
263.150130
263.150127
263.150123
263.150120
263.150117
263.150113
263.150110
263.150107
263.150104
263.150101
263.150098
263.150095
263.150092
263.150090
263.150087
263.150084
263.150082
263.150079
263.150077
263.150075
263.150072
263.150070
263.150068
263.150066
263.150063
263.150061
263.150059
263.150057
263.150055
263.150053
263.150051
263.150049
263.150048
263.150046
263.150044
263.150042
263.150041
263.150039
263.150037
263.150036
263.150034
263.150032
263.150031
263.150029
263.150028
263.150026
263.150025
263.150023
263.150022
263.150020
263.150019
263.150018
263.150016
263.150015
263.150013
263.150012
263.150011
263.150009
263.150008
263.150007
263.150005
263.150004
263.150003
263.150001
263.150000
        </DataArray>
      </PointData>
      <CellData>
      </CellData>
    </Piece>
  </UnstructuredGrid>
</VTKFile>
