<?xml version="1.0"?>
<VTKFile type="UnstructuredGrid" version="0.1" byte_order="LittleEndian">
  <UnstructuredGrid>
    <Piece NumberOfPoints="801" NumberOfCells="800">
      <Points>
        <DataArray type="Float32" NumberOfComponents="3" format="ascii">
0.000000 0.0 0.0
0.005000 0.0 0.0
0.010000 0.0 0.0
0.015000 0.0 0.0
0.020000 0.0 0.0
0.025000 0.0 0.0
0.030000 0.0 0.0
0.035000 0.0 0.0
0.040000 0.0 0.0
0.045000 0.0 0.0
0.050000 0.0 0.0
0.055000 0.0 0.0
0.060000 0.0 0.0
0.065000 0.0 0.0
0.070000 0.0 0.0
0.075000 0.0 0.0
0.080000 0.0 0.0
0.085000 0.0 0.0
0.090000 0.0 0.0
0.095000 0.0 0.0
0.100000 0.0 0.0
0.105000 0.0 0.0
0.110000 0.0 0.0
0.115000 0.0 0.0
0.120000 0.0 0.0
0.125000 0.0 0.0
0.130000 0.0 0.0
0.135000 0.0 0.0
0.140000 0.0 0.0
0.145000 0.0 0.0
0.150000 0.0 0.0
0.155000 0.0 0.0
0.160000 0.0 0.0
0.165000 0.0 0.0
0.170000 0.0 0.0
0.175000 0.0 0.0
0.180000 0.0 0.0
0.185000 0.0 0.0
0.190000 0.0 0.0
0.195000 0.0 0.0
0.200000 0.0 0.0
0.205000 0.0 0.0
0.210000 0.0 0.0
0.215000 0.0 0.0
0.220000 0.0 0.0
0.225000 0.0 0.0
0.230000 0.0 0.0
0.235000 0.0 0.0
0.240000 0.0 0.0
0.245000 0.0 0.0
0.250000 0.0 0.0
0.255000 0.0 0.0
0.260000 0.0 0.0
0.265000 0.0 0.0
0.270000 0.0 0.0
0.275000 0.0 0.0
0.280000 0.0 0.0
0.285000 0.0 0.0
0.290000 0.0 0.0
0.295000 0.0 0.0
0.300000 0.0 0.0
0.305000 0.0 0.0
0.310000 0.0 0.0
0.315000 0.0 0.0
0.320000 0.0 0.0
0.325000 0.0 0.0
0.330000 0.0 0.0
0.335000 0.0 0.0
0.340000 0.0 0.0
0.345000 0.0 0.0
0.350000 0.0 0.0
0.355000 0.0 0.0
0.360000 0.0 0.0
0.365000 0.0 0.0
0.370000 0.0 0.0
0.375000 0.0 0.0
0.380000 0.0 0.0
0.385000 0.0 0.0
0.390000 0.0 0.0
0.395000 0.0 0.0
0.400000 0.0 0.0
0.405000 0.0 0.0
0.410000 0.0 0.0
0.415000 0.0 0.0
0.420000 0.0 0.0
0.425000 0.0 0.0
0.430000 0.0 0.0
0.435000 0.0 0.0
0.440000 0.0 0.0
0.445000 0.0 0.0
0.450000 0.0 0.0
0.455000 0.0 0.0
0.460000 0.0 0.0
0.465000 0.0 0.0
0.470000 0.0 0.0
0.475000 0.0 0.0
0.480000 0.0 0.0
0.485000 0.0 0.0
0.490000 0.0 0.0
0.495000 0.0 0.0
0.500000 0.0 0.0
0.505000 0.0 0.0
0.510000 0.0 0.0
0.515000 0.0 0.0
0.520000 0.0 0.0
0.525000 0.0 0.0
0.530000 0.0 0.0
0.535000 0.0 0.0
0.540000 0.0 0.0
0.545000 0.0 0.0
0.550000 0.0 0.0
0.555000 0.0 0.0
0.560000 0.0 0.0
0.565000 0.0 0.0
0.570000 0.0 0.0
0.575000 0.0 0.0
0.580000 0.0 0.0
0.585000 0.0 0.0
0.590000 0.0 0.0
0.595000 0.0 0.0
0.600000 0.0 0.0
0.605000 0.0 0.0
0.610000 0.0 0.0
0.615000 0.0 0.0
0.620000 0.0 0.0
0.625000 0.0 0.0
0.630000 0.0 0.0
0.635000 0.0 0.0
0.640000 0.0 0.0
0.645000 0.0 0.0
0.650000 0.0 0.0
0.655000 0.0 0.0
0.660000 0.0 0.0
0.665000 0.0 0.0
0.670000 0.0 0.0
0.675000 0.0 0.0
0.680000 0.0 0.0
0.685000 0.0 0.0
0.690000 0.0 0.0
0.695000 0.0 0.0
0.700000 0.0 0.0
0.705000 0.0 0.0
0.710000 0.0 0.0
0.715000 0.0 0.0
0.720000 0.0 0.0
0.725000 0.0 0.0
0.730000 0.0 0.0
0.735000 0.0 0.0
0.740000 0.0 0.0
0.745000 0.0 0.0
0.750000 0.0 0.0
0.755000 0.0 0.0
0.760000 0.0 0.0
0.765000 0.0 0.0
0.770000 0.0 0.0
0.775000 0.0 0.0
0.780000 0.0 0.0
0.785000 0.0 0.0
0.790000 0.0 0.0
0.795000 0.0 0.0
0.800000 0.0 0.0
0.805000 0.0 0.0
0.810000 0.0 0.0
0.815000 0.0 0.0
0.820000 0.0 0.0
0.825000 0.0 0.0
0.830000 0.0 0.0
0.835000 0.0 0.0
0.840000 0.0 0.0
0.845000 0.0 0.0
0.850000 0.0 0.0
0.855000 0.0 0.0
0.860000 0.0 0.0
0.865000 0.0 0.0
0.870000 0.0 0.0
0.875000 0.0 0.0
0.880000 0.0 0.0
0.885000 0.0 0.0
0.890000 0.0 0.0
0.895000 0.0 0.0
0.900000 0.0 0.0
0.905000 0.0 0.0
0.910000 0.0 0.0
0.915000 0.0 0.0
0.920000 0.0 0.0
0.925000 0.0 0.0
0.930000 0.0 0.0
0.935000 0.0 0.0
0.940000 0.0 0.0
0.945000 0.0 0.0
0.950000 0.0 0.0
0.955000 0.0 0.0
0.960000 0.0 0.0
0.965000 0.0 0.0
0.970000 0.0 0.0
0.975000 0.0 0.0
0.980000 0.0 0.0
0.985000 0.0 0.0
0.990000 0.0 0.0
0.995000 0.0 0.0
1.000000 0.0 0.0
1.005000 0.0 0.0
1.010000 0.0 0.0
1.015000 0.0 0.0
1.020000 0.0 0.0
1.025000 0.0 0.0
1.030000 0.0 0.0
1.035000 0.0 0.0
1.040000 0.0 0.0
1.045000 0.0 0.0
1.050000 0.0 0.0
1.055000 0.0 0.0
1.060000 0.0 0.0
1.065000 0.0 0.0
1.070000 0.0 0.0
1.075000 0.0 0.0
1.080000 0.0 0.0
1.085000 0.0 0.0
1.090000 0.0 0.0
1.095000 0.0 0.0
1.100000 0.0 0.0
1.105000 0.0 0.0
1.110000 0.0 0.0
1.115000 0.0 0.0
1.120000 0.0 0.0
1.125000 0.0 0.0
1.130000 0.0 0.0
1.135000 0.0 0.0
1.140000 0.0 0.0
1.145000 0.0 0.0
1.150000 0.0 0.0
1.155000 0.0 0.0
1.160000 0.0 0.0
1.165000 0.0 0.0
1.170000 0.0 0.0
1.175000 0.0 0.0
1.180000 0.0 0.0
1.185000 0.0 0.0
1.190000 0.0 0.0
1.195000 0.0 0.0
1.200000 0.0 0.0
1.205000 0.0 0.0
1.210000 0.0 0.0
1.215000 0.0 0.0
1.220000 0.0 0.0
1.225000 0.0 0.0
1.230000 0.0 0.0
1.235000 0.0 0.0
1.240000 0.0 0.0
1.245000 0.0 0.0
1.250000 0.0 0.0
1.255000 0.0 0.0
1.260000 0.0 0.0
1.265000 0.0 0.0
1.270000 0.0 0.0
1.275000 0.0 0.0
1.280000 0.0 0.0
1.285000 0.0 0.0
1.290000 0.0 0.0
1.295000 0.0 0.0
1.300000 0.0 0.0
1.305000 0.0 0.0
1.310000 0.0 0.0
1.315000 0.0 0.0
1.320000 0.0 0.0
1.325000 0.0 0.0
1.330000 0.0 0.0
1.335000 0.0 0.0
1.340000 0.0 0.0
1.345000 0.0 0.0
1.350000 0.0 0.0
1.355000 0.0 0.0
1.360000 0.0 0.0
1.365000 0.0 0.0
1.370000 0.0 0.0
1.375000 0.0 0.0
1.380000 0.0 0.0
1.385000 0.0 0.0
1.390000 0.0 0.0
1.395000 0.0 0.0
1.400000 0.0 0.0
1.405000 0.0 0.0
1.410000 0.0 0.0
1.415000 0.0 0.0
1.420000 0.0 0.0
1.425000 0.0 0.0
1.430000 0.0 0.0
1.435000 0.0 0.0
1.440000 0.0 0.0
1.445000 0.0 0.0
1.450000 0.0 0.0
1.455000 0.0 0.0
1.460000 0.0 0.0
1.465000 0.0 0.0
1.470000 0.0 0.0
1.475000 0.0 0.0
1.480000 0.0 0.0
1.485000 0.0 0.0
1.490000 0.0 0.0
1.495000 0.0 0.0
1.500000 0.0 0.0
1.505000 0.0 0.0
1.510000 0.0 0.0
1.515000 0.0 0.0
1.520000 0.0 0.0
1.525000 0.0 0.0
1.530000 0.0 0.0
1.535000 0.0 0.0
1.540000 0.0 0.0
1.545000 0.0 0.0
1.550000 0.0 0.0
1.555000 0.0 0.0
1.560000 0.0 0.0
1.565000 0.0 0.0
1.570000 0.0 0.0
1.575000 0.0 0.0
1.580000 0.0 0.0
1.585000 0.0 0.0
1.590000 0.0 0.0
1.595000 0.0 0.0
1.600000 0.0 0.0
1.605000 0.0 0.0
1.610000 0.0 0.0
1.615000 0.0 0.0
1.620000 0.0 0.0
1.625000 0.0 0.0
1.630000 0.0 0.0
1.635000 0.0 0.0
1.640000 0.0 0.0
1.645000 0.0 0.0
1.650000 0.0 0.0
1.655000 0.0 0.0
1.660000 0.0 0.0
1.665000 0.0 0.0
1.670000 0.0 0.0
1.675000 0.0 0.0
1.680000 0.0 0.0
1.685000 0.0 0.0
1.690000 0.0 0.0
1.695000 0.0 0.0
1.700000 0.0 0.0
1.705000 0.0 0.0
1.710000 0.0 0.0
1.715000 0.0 0.0
1.720000 0.0 0.0
1.725000 0.0 0.0
1.730000 0.0 0.0
1.735000 0.0 0.0
1.740000 0.0 0.0
1.745000 0.0 0.0
1.750000 0.0 0.0
1.755000 0.0 0.0
1.760000 0.0 0.0
1.765000 0.0 0.0
1.770000 0.0 0.0
1.775000 0.0 0.0
1.780000 0.0 0.0
1.785000 0.0 0.0
1.790000 0.0 0.0
1.795000 0.0 0.0
1.800000 0.0 0.0
1.805000 0.0 0.0
1.810000 0.0 0.0
1.815000 0.0 0.0
1.820000 0.0 0.0
1.825000 0.0 0.0
1.830000 0.0 0.0
1.835000 0.0 0.0
1.840000 0.0 0.0
1.845000 0.0 0.0
1.850000 0.0 0.0
1.855000 0.0 0.0
1.860000 0.0 0.0
1.865000 0.0 0.0
1.870000 0.0 0.0
1.875000 0.0 0.0
1.880000 0.0 0.0
1.885000 0.0 0.0
1.890000 0.0 0.0
1.895000 0.0 0.0
1.900000 0.0 0.0
1.905000 0.0 0.0
1.910000 0.0 0.0
1.915000 0.0 0.0
1.920000 0.0 0.0
1.925000 0.0 0.0
1.930000 0.0 0.0
1.935000 0.0 0.0
1.940000 0.0 0.0
1.945000 0.0 0.0
1.950000 0.0 0.0
1.955000 0.0 0.0
1.960000 0.0 0.0
1.965000 0.0 0.0
1.970000 0.0 0.0
1.975000 0.0 0.0
1.980000 0.0 0.0
1.985000 0.0 0.0
1.990000 0.0 0.0
1.995000 0.0 0.0
2.000000 0.0 0.0
2.005000 0.0 0.0
2.010000 0.0 0.0
2.015000 0.0 0.0
2.020000 0.0 0.0
2.025000 0.0 0.0
2.030000 0.0 0.0
2.035000 0.0 0.0
2.040000 0.0 0.0
2.045000 0.0 0.0
2.050000 0.0 0.0
2.055000 0.0 0.0
2.060000 0.0 0.0
2.065000 0.0 0.0
2.070000 0.0 0.0
2.075000 0.0 0.0
2.080000 0.0 0.0
2.085000 0.0 0.0
2.090000 0.0 0.0
2.095000 0.0 0.0
2.100000 0.0 0.0
2.105000 0.0 0.0
2.110000 0.0 0.0
2.115000 0.0 0.0
2.120000 0.0 0.0
2.125000 0.0 0.0
2.130000 0.0 0.0
2.135000 0.0 0.0
2.140000 0.0 0.0
2.145000 0.0 0.0
2.150000 0.0 0.0
2.155000 0.0 0.0
2.160000 0.0 0.0
2.165000 0.0 0.0
2.170000 0.0 0.0
2.175000 0.0 0.0
2.180000 0.0 0.0
2.185000 0.0 0.0
2.190000 0.0 0.0
2.195000 0.0 0.0
2.200000 0.0 0.0
2.205000 0.0 0.0
2.210000 0.0 0.0
2.215000 0.0 0.0
2.220000 0.0 0.0
2.225000 0.0 0.0
2.230000 0.0 0.0
2.235000 0.0 0.0
2.240000 0.0 0.0
2.245000 0.0 0.0
2.250000 0.0 0.0
2.255000 0.0 0.0
2.260000 0.0 0.0
2.265000 0.0 0.0
2.270000 0.0 0.0
2.275000 0.0 0.0
2.280000 0.0 0.0
2.285000 0.0 0.0
2.290000 0.0 0.0
2.295000 0.0 0.0
2.300000 0.0 0.0
2.305000 0.0 0.0
2.310000 0.0 0.0
2.315000 0.0 0.0
2.320000 0.0 0.0
2.325000 0.0 0.0
2.330000 0.0 0.0
2.335000 0.0 0.0
2.340000 0.0 0.0
2.345000 0.0 0.0
2.350000 0.0 0.0
2.355000 0.0 0.0
2.360000 0.0 0.0
2.365000 0.0 0.0
2.370000 0.0 0.0
2.375000 0.0 0.0
2.380000 0.0 0.0
2.385000 0.0 0.0
2.390000 0.0 0.0
2.395000 0.0 0.0
2.400000 0.0 0.0
2.405000 0.0 0.0
2.410000 0.0 0.0
2.415000 0.0 0.0
2.420000 0.0 0.0
2.425000 0.0 0.0
2.430000 0.0 0.0
2.435000 0.0 0.0
2.440000 0.0 0.0
2.445000 0.0 0.0
2.450000 0.0 0.0
2.455000 0.0 0.0
2.460000 0.0 0.0
2.465000 0.0 0.0
2.470000 0.0 0.0
2.475000 0.0 0.0
2.480000 0.0 0.0
2.485000 0.0 0.0
2.490000 0.0 0.0
2.495000 0.0 0.0
2.500000 0.0 0.0
2.505000 0.0 0.0
2.510000 0.0 0.0
2.515000 0.0 0.0
2.520000 0.0 0.0
2.525000 0.0 0.0
2.530000 0.0 0.0
2.535000 0.0 0.0
2.540000 0.0 0.0
2.545000 0.0 0.0
2.550000 0.0 0.0
2.555000 0.0 0.0
2.560000 0.0 0.0
2.565000 0.0 0.0
2.570000 0.0 0.0
2.575000 0.0 0.0
2.580000 0.0 0.0
2.585000 0.0 0.0
2.590000 0.0 0.0
2.595000 0.0 0.0
2.600000 0.0 0.0
2.605000 0.0 0.0
2.610000 0.0 0.0
2.615000 0.0 0.0
2.620000 0.0 0.0
2.625000 0.0 0.0
2.630000 0.0 0.0
2.635000 0.0 0.0
2.640000 0.0 0.0
2.645000 0.0 0.0
2.650000 0.0 0.0
2.655000 0.0 0.0
2.660000 0.0 0.0
2.665000 0.0 0.0
2.670000 0.0 0.0
2.675000 0.0 0.0
2.680000 0.0 0.0
2.685000 0.0 0.0
2.690000 0.0 0.0
2.695000 0.0 0.0
2.700000 0.0 0.0
2.705000 0.0 0.0
2.710000 0.0 0.0
2.715000 0.0 0.0
2.720000 0.0 0.0
2.725000 0.0 0.0
2.730000 0.0 0.0
2.735000 0.0 0.0
2.740000 0.0 0.0
2.745000 0.0 0.0
2.750000 0.0 0.0
2.755000 0.0 0.0
2.760000 0.0 0.0
2.765000 0.0 0.0
2.770000 0.0 0.0
2.775000 0.0 0.0
2.780000 0.0 0.0
2.785000 0.0 0.0
2.790000 0.0 0.0
2.795000 0.0 0.0
2.800000 0.0 0.0
2.805000 0.0 0.0
2.810000 0.0 0.0
2.815000 0.0 0.0
2.820000 0.0 0.0
2.825000 0.0 0.0
2.830000 0.0 0.0
2.835000 0.0 0.0
2.840000 0.0 0.0
2.845000 0.0 0.0
2.850000 0.0 0.0
2.855000 0.0 0.0
2.860000 0.0 0.0
[...]
      <PointData Scalars="Temperature">
        <DataArray type="Float32" Name="Temperature" format="ascii">
308.150000
307.212120
306.274430
305.337120
304.400381
303.464402
302.529372
301.595480
300.662913
299.731858
298.802503
297.875032
296.949629
296.026477
295.105757
294.187650
293.272334
292.359987
291.450783
290.544896
289.642498
288.743759
287.848846
286.957925
286.071159
285.188711
284.310738
283.437398
282.568845
281.705232
280.846707
279.993418
279.145510
278.303123
277.466397
276.635466
275.810467
274.991644
274.185742
273.525297
273.200033
273.028171
272.911503
272.820349
272.743338
272.675098
272.612708
272.554423
272.499122
272.446050
272.394678
272.344625
272.295609
272.247419
272.199892
272.152905
272.106361
272.060184
272.014314
271.968705
271.923319
271.878126
271.833103
271.788232
271.743497
271.698886
271.654391
271.610005
271.565720
271.521534
271.477443
271.433443
271.389535
271.345715
271.301983
271.258339
271.214782
271.171313
271.127931
271.084637
271.041431
270.998314
270.955287
270.912349
270.869503
270.826748
270.784086
270.741516
270.699041
270.656660
270.614376
270.572187
270.530096
270.488104
270.446210
270.404417
270.362724
270.321133
270.279644
270.238258
270.196977
270.155801
270.114730
270.073766
270.032910
269.992162
269.951522
269.910993
269.870574
269.830266
269.790070
269.749988
269.710018
269.670164
269.630424
269.590800
269.551292
269.511902
269.472629
269.433475
269.394440
269.355525
269.316731
269.278058
269.239506
269.201078
269.162772
269.124590
269.086533
269.048600
269.010793
268.973112
268.935558
268.898132
268.860833
268.823662
268.786621
268.749708
268.712926
268.676275
268.639754
268.603365
268.567108
268.530984
268.494992
268.459134
268.423410
268.387820
268.352365
268.317045
268.281861
268.246813
268.211901
268.177126
268.142488
268.107988
268.073626
268.039402
268.005317
267.971371
267.937564
267.903897
267.870370
267.836983
267.803736
267.770631
267.737666
267.704843
267.672162
267.639623
267.607226
267.574971
267.542859
267.510889
267.479063
267.447380
267.415841
267.384445
267.353193
267.322085
267.291121
267.260301
267.229626
267.199096
267.168710
267.138469
267.108372
267.078421
267.048615
267.018955
266.989439
266.960069
266.930844
266.901765
266.872831
266.844043
266.815400
266.786903
266.758551
266.730346
266.702285
266.674371
266.646601
266.618978
266.591500
266.564167
266.536980
266.509938
266.483042
266.456290
266.429684
266.403223
266.376907
266.350736
266.324710
266.298828
266.273091
266.247498
266.222049
266.196745
266.171584
266.146568
266.121695
266.096965
266.072379
266.047936
266.023636
265.999478
265.975463
265.951591
265.927860
265.904272
265.880825
265.857520
265.834355
265.811332
265.788449
265.765707
265.743105
265.720643
265.698321
265.676137
265.654093
265.632188
265.610421
265.588793
265.567302
265.545948
265.524732
265.503653
265.482711
265.461904
265.441234
265.420699
265.400299
265.380034
265.359904
265.339908
265.320045
265.300316
265.280720
265.261256
265.241925
265.222725
265.203657
265.184720
265.165914
265.147238
265.128692
265.110275
265.091987
265.073827
265.055796
265.037892
265.020116
265.002467
264.984943
264.967546
264.950275
264.933128
264.916106
264.899208
264.882433
264.865782
264.849253
264.832847
264.816563
264.800399
264.784357
264.768435
264.752633
264.736950
264.721385
264.705940
264.690612
264.675401
264.660308
264.645330
264.630469
264.615722
264.601091
264.586574
264.572171
264.557881
264.543704
264.529639
264.515685
264.501843
264.488112
264.474491
264.460979
264.447576
264.434282
264.421096
264.408018
264.395046
264.382181
264.369422
264.356768
264.344218
264.331773
264.319432
264.307194
264.295058
264.283025
264.271093
264.259262
264.247531
264.235901
264.224369
264.212937
264.201603
264.190366
264.179226
264.168183
264.157236
264.146385
264.135628
264.124966
264.114398
264.103923
264.093540
264.083250
264.073051
264.062944
264.052926
264.042999
264.033161
264.023413
264.013752
264.004179
263.994693
263.985294
263.975981
263.966754
263.957612
263.948554
263.939580
263.930689
263.921881
263.913155
263.904511
263.895949
263.887467
263.879065
263.870742
263.862499
263.854334
263.846247
263.838237
263.830305
263.822448
263.814668
263.806963
263.799332
263.791776
263.784293
263.776883
263.769547
263.762282
263.755089
263.747967
263.740915
263.733933
263.727021
263.720178
263.713404
263.706697
263.700058
263.693486
263.686980
263.680540
263.674166
263.667856
263.661611
263.655430
263.649313
263.643258
263.637266
263.631335
263.625466
263.619659
263.613911
263.608224
263.602596
263.597027
263.591517
263.586065
263.580670
263.575333
263.570052
263.564828
263.559659
263.554545
263.549487
263.544482
263.539532
263.534635
263.529791
263.525000
263.520260
263.515573
263.510936
263.506351
263.501815
263.497330
263.492894
263.488507
263.484168
263.479878
263.475635
263.471440
263.467292
263.463190
263.459134
263.455124
263.451159
263.447239
263.443363
263.439531
263.435743
263.431998
263.428296
263.424636
263.421019
263.417442
263.413908
263.410413
263.406960
263.403546
263.400173
263.396838
263.393542
263.390286
263.387067
263.383886
263.380742
263.377636
263.374566
263.371533
263.368536
263.365575
263.362648
263.359757
263.356901
263.354078
263.351290
263.348535
263.345814
263.343126
263.340470
263.337846
263.335255
263.332695
263.330166
263.327668
263.325201
263.322765
263.320358
263.317981
263.315634
263.313316
263.311026
263.308765
263.306532
263.304327
263.302150
263.300000
263.297877
263.295781
263.293712
263.291668
263.289651
263.287659
263.285692
263.283751
263.281834
263.279942
263.278074
263.276230
263.274410
263.272614
263.270840
263.269090
263.267362
263.265657
263.263974
263.262313
263.260673
263.259055
263.257459
263.255883
263.254328
263.252794
263.251280
263.249786
263.248311
263.246857
263.245421
263.244005
263.242608
263.241230
263.239870
263.238528
263.237204
263.235899
263.234611
263.233340
263.232086
263.230850
263.229630
263.228428
263.227241
263.226071
263.224917
263.223778
263.222656
263.221548
263.220456
263.219380
263.218318
263.217271
263.216238
263.215220
263.214216
263.213226
263.212250
263.211287
263.210338
263.209403
263.208481
263.207571
263.206675
263.205791
263.204920
263.204061
263.203215
263.202380
263.201557
263.200747
263.199948
263.199160
263.198384
263.197618
263.196864
263.196121
263.195389
263.194667
263.193956
263.193255
263.192564
263.191883
263.191213
263.190552
263.189901
263.189259
263.188627
263.188004
263.187391
263.186786
263.186191
263.185604
263.185026
263.184457
263.183896
263.183343
263.182799
263.182263
263.181735
263.181215
263.180703
263.180198
263.179701
263.179212
263.178730
263.178255
263.177788
263.177327
263.176874
263.176428
263.175988
263.175555
263.175129
263.174709
263.174296
263.173889
263.173489
263.173095
263.172706
263.172324
263.171948
263.171577
263.171213
263.170854
263.170500
263.170153
263.169810
263.169473
263.169141
263.168815
263.168494
263.168177
263.167866
263.167560
263.167258
263.166961
263.166669
263.166382
263.166099
263.165821
263.165547
263.165278
263.165013
263.164752
263.164495
263.164242
263.163994
263.163749
263.163509
263.163272
263.163040
263.162810
263.162585
263.162364
263.162145
263.161931
263.161720
263.161512
263.161308
263.161107
263.160910
263.160716
263.160525
263.160337
263.160152
263.159970
263.159791
263.159615
263.159443
263.159272
263.159105
263.158941
263.158779
263.158620
263.158464
263.158310
263.158159
263.158010
263.157864
263.157720
263.157579
263.157440
263.157303
263.157169
263.157037
263.156907
263.156779
263.156654
263.156530
263.156409
263.156289
263.156172
263.156057
263.155944
263.155832
263.155723
263.155615
263.155509
263.155405
263.155303
263.155202
263.155103
263.155006
263.154911
263.154817
263.154724
263.154634
263.154545
263.154457
263.154371
263.154286
263.154203
263.154121
263.154040
263.153961
263.153883
263.153807
263.153732
263.153658
263.153585
263.153514
263.153444
263.153375
263.153307
263.153240
263.153174
263.153110
263.153046
263.152984
263.152923
263.152862
263.152803
263.152745
263.152687
263.152631
263.152575
263.152521
263.152467
263.152414
263.152362
263.152311
263.152261
263.152211
263.152163
263.152115
263.152068
263.152021
263.151976
263.151931
263.151886
263.151843
263.151800
263.151758
263.151716
263.151675
263.151635
263.151595
263.151555
263.151517
263.151479
263.151441
263.151404
263.151368
263.151332
263.151296
263.151261
263.151227
263.151193
263.151159
263.151126
263.151093
263.151060
263.151028
263.150997
263.150966
263.150935
263.150904
263.150874
263.150844
263.150815
263.150785
263.150756
263.150728
263.150699
263.150671
263.150643
263.150616
263.150588
263.150561
263.150534
263.150508
263.150481
263.150455
263.150428
263.150402
263.150376
263.150351
263.150325
263.150300
263.150274
263.150249
263.150224
263.150199
263.150174
263.150149
263.150124
263.150099
263.150074
263.150049
263.150025
263.150000
        </DataArray>
      </PointData>
      <CellData>
      </CellData>
    </Piece>
  </UnstructuredGrid>
</VTKFile>
