<?xml version="1.0"?>
<VTKFile type="UnstructuredGrid" version="0.1" byte_order="LittleEndian">
  <UnstructuredGrid>
    <Piece NumberOfPoints="801" NumberOfCells="800">
      <Points>
        <DataArray type="Float32" NumberOfComponents="3" format="ascii">
0.000000 0.0 0.0
0.005000 0.0 0.0
0.010000 0.0 0.0
0.015000 0.0 0.0
0.020000 0.0 0.0
0.025000 0.0 0.0
0.030000 0.0 0.0
0.035000 0.0 0.0
0.040000 0.0 0.0
0.045000 0.0 0.0
0.050000 0.0 0.0
0.055000 0.0 0.0
0.060000 0.0 0.0
0.065000 0.0 0.0
0.070000 0.0 0.0
0.075000 0.0 0.0
0.080000 0.0 0.0
0.085000 0.0 0.0
0.090000 0.0 0.0
0.095000 0.0 0.0
0.100000 0.0 0.0
0.105000 0.0 0.0
0.110000 0.0 0.0
0.115000 0.0 0.0
0.120000 0.0 0.0
0.125000 0.0 0.0
0.130000 0.0 0.0
0.135000 0.0 0.0
0.140000 0.0 0.0
0.145000 0.0 0.0
0.150000 0.0 0.0
0.155000 0.0 0.0
0.160000 0.0 0.0
0.165000 0.0 0.0
0.170000 0.0 0.0
0.175000 0.0 0.0
0.180000 0.0 0.0
0.185000 0.0 0.0
0.190000 0.0 0.0
0.195000 0.0 0.0
0.200000 0.0 0.0
0.205000 0.0 0.0
0.210000 0.0 0.0
0.215000 0.0 0.0
0.220000 0.0 0.0
0.225000 0.0 0.0
0.230000 0.0 0.0
0.235000 0.0 0.0
0.240000 0.0 0.0
0.245000 0.0 0.0
0.250000 0.0 0.0
0.255000 0.0 0.0
0.260000 0.0 0.0
0.265000 0.0 0.0
0.270000 0.0 0.0
0.275000 0.0 0.0
0.280000 0.0 0.0
0.285000 0.0 0.0
0.290000 0.0 0.0
0.295000 0.0 0.0
0.300000 0.0 0.0
0.305000 0.0 0.0
0.310000 0.0 0.0
0.315000 0.0 0.0
0.320000 0.0 0.0
0.325000 0.0 0.0
0.330000 0.0 0.0
0.335000 0.0 0.0
0.340000 0.0 0.0
0.345000 0.0 0.0
0.350000 0.0 0.0
0.355000 0.0 0.0
0.360000 0.0 0.0
0.365000 0.0 0.0
0.370000 0.0 0.0
0.375000 0.0 0.0
0.380000 0.0 0.0
0.385000 0.0 0.0
0.390000 0.0 0.0
0.395000 0.0 0.0
0.400000 0.0 0.0
0.405000 0.0 0.0
0.410000 0.0 0.0
0.415000 0.0 0.0
0.420000 0.0 0.0
0.425000 0.0 0.0
0.430000 0.0 0.0
0.435000 0.0 0.0
0.440000 0.0 0.0
0.445000 0.0 0.0
0.450000 0.0 0.0
0.455000 0.0 0.0
0.460000 0.0 0.0
0.465000 0.0 0.0
0.470000 0.0 0.0
0.475000 0.0 0.0
0.480000 0.0 0.0
0.485000 0.0 0.0
0.490000 0.0 0.0
0.495000 0.0 0.0
0.500000 0.0 0.0
0.505000 0.0 0.0
0.510000 0.0 0.0
0.515000 0.0 0.0
0.520000 0.0 0.0
0.525000 0.0 0.0
0.530000 0.0 0.0
0.535000 0.0 0.0
0.540000 0.0 0.0
0.545000 0.0 0.0
0.550000 0.0 0.0
0.555000 0.0 0.0
0.560000 0.0 0.0
0.565000 0.0 0.0
0.570000 0.0 0.0
0.575000 0.0 0.0
0.580000 0.0 0.0
0.585000 0.0 0.0
0.590000 0.0 0.0
0.595000 0.0 0.0
0.600000 0.0 0.0
0.605000 0.0 0.0
0.610000 0.0 0.0
0.615000 0.0 0.0
0.620000 0.0 0.0
0.625000 0.0 0.0
0.630000 0.0 0.0
0.635000 0.0 0.0
0.640000 0.0 0.0
0.645000 0.0 0.0
0.650000 0.0 0.0
0.655000 0.0 0.0
0.660000 0.0 0.0
0.665000 0.0 0.0
0.670000 0.0 0.0
0.675000 0.0 0.0
0.680000 0.0 0.0
0.685000 0.0 0.0
0.690000 0.0 0.0
0.695000 0.0 0.0
0.700000 0.0 0.0
0.705000 0.0 0.0
0.710000 0.0 0.0
0.715000 0.0 0.0
0.720000 0.0 0.0
0.725000 0.0 0.0
0.730000 0.0 0.0
0.735000 0.0 0.0
0.740000 0.0 0.0
0.745000 0.0 0.0
0.750000 0.0 0.0
0.755000 0.0 0.0
0.760000 0.0 0.0
0.765000 0.0 0.0
0.770000 0.0 0.0
0.775000 0.0 0.0
0.780000 0.0 0.0
0.785000 0.0 0.0
0.790000 0.0 0.0
0.795000 0.0 0.0
0.800000 0.0 0.0
0.805000 0.0 0.0
0.810000 0.0 0.0
0.815000 0.0 0.0
0.820000 0.0 0.0
0.825000 0.0 0.0
0.830000 0.0 0.0
0.835000 0.0 0.0
0.840000 0.0 0.0
0.845000 0.0 0.0
0.850000 0.0 0.0
0.855000 0.0 0.0
0.860000 0.0 0.0
0.865000 0.0 0.0
0.870000 0.0 0.0
0.875000 0.0 0.0
0.880000 0.0 0.0
0.885000 0.0 0.0
0.890000 0.0 0.0
0.895000 0.0 0.0
0.900000 0.0 0.0
0.905000 0.0 0.0
0.910000 0.0 0.0
0.915000 0.0 0.0
0.920000 0.0 0.0
0.925000 0.0 0.0
0.930000 0.0 0.0
0.935000 0.0 0.0
0.940000 0.0 0.0
0.945000 0.0 0.0
0.950000 0.0 0.0
0.955000 0.0 0.0
0.960000 0.0 0.0
0.965000 0.0 0.0
0.970000 0.0 0.0
0.975000 0.0 0.0
0.980000 0.0 0.0
0.985000 0.0 0.0
0.990000 0.0 0.0
0.995000 0.0 0.0
1.000000 0.0 0.0
1.005000 0.0 0.0
1.010000 0.0 0.0
1.015000 0.0 0.0
1.020000 0.0 0.0
1.025000 0.0 0.0
1.030000 0.0 0.0
1.035000 0.0 0.0
1.040000 0.0 0.0
1.045000 0.0 0.0
1.050000 0.0 0.0
1.055000 0.0 0.0
1.060000 0.0 0.0
1.065000 0.0 0.0
1.070000 0.0 0.0
1.075000 0.0 0.0
1.080000 0.0 0.0
1.085000 0.0 0.0
1.090000 0.0 0.0
1.095000 0.0 0.0
1.100000 0.0 0.0
1.105000 0.0 0.0
1.110000 0.0 0.0
1.115000 0.0 0.0
1.120000 0.0 0.0
1.125000 0.0 0.0
1.130000 0.0 0.0
1.135000 0.0 0.0
1.140000 0.0 0.0
1.145000 0.0 0.0
1.150000 0.0 0.0
1.155000 0.0 0.0
1.160000 0.0 0.0
1.165000 0.0 0.0
1.170000 0.0 0.0
1.175000 0.0 0.0
1.180000 0.0 0.0
1.185000 0.0 0.0
1.190000 0.0 0.0
1.195000 0.0 0.0
1.200000 0.0 0.0
1.205000 0.0 0.0
1.210000 0.0 0.0
1.215000 0.0 0.0
1.220000 0.0 0.0
1.225000 0.0 0.0
1.230000 0.0 0.0
1.235000 0.0 0.0
1.240000 0.0 0.0
1.245000 0.0 0.0
1.250000 0.0 0.0
1.255000 0.0 0.0
1.260000 0.0 0.0
1.265000 0.0 0.0
1.270000 0.0 0.0
1.275000 0.0 0.0
1.280000 0.0 0.0
1.285000 0.0 0.0
1.290000 0.0 0.0
1.295000 0.0 0.0
1.300000 0.0 0.0
1.305000 0.0 0.0
1.310000 0.0 0.0
1.315000 0.0 0.0
1.320000 0.0 0.0
1.325000 0.0 0.0
1.330000 0.0 0.0
1.335000 0.0 0.0
1.340000 0.0 0.0
1.345000 0.0 0.0
1.350000 0.0 0.0
1.355000 0.0 0.0
1.360000 0.0 0.0
1.365000 0.0 0.0
1.370000 0.0 0.0
1.375000 0.0 0.0
1.380000 0.0 0.0
1.385000 0.0 0.0
1.390000 0.0 0.0
1.395000 0.0 0.0
1.400000 0.0 0.0
1.405000 0.0 0.0
1.410000 0.0 0.0
1.415000 0.0 0.0
1.420000 0.0 0.0
1.425000 0.0 0.0
1.430000 0.0 0.0
1.435000 0.0 0.0
1.440000 0.0 0.0
1.445000 0.0 0.0
1.450000 0.0 0.0
1.455000 0.0 0.0
1.460000 0.0 0.0
1.465000 0.0 0.0
1.470000 0.0 0.0
1.475000 0.0 0.0
1.480000 0.0 0.0
1.485000 0.0 0.0
1.490000 0.0 0.0
1.495000 0.0 0.0
1.500000 0.0 0.0
1.505000 0.0 0.0
1.510000 0.0 0.0
1.515000 0.0 0.0
1.520000 0.0 0.0
1.525000 0.0 0.0
1.530000 0.0 0.0
1.535000 0.0 0.0
1.540000 0.0 0.0
1.545000 0.0 0.0
1.550000 0.0 0.0
1.555000 0.0 0.0
1.560000 0.0 0.0
1.565000 0.0 0.0
1.570000 0.0 0.0
1.575000 0.0 0.0
1.580000 0.0 0.0
1.585000 0.0 0.0
1.590000 0.0 0.0
1.595000 0.0 0.0
1.600000 0.0 0.0
1.605000 0.0 0.0
1.610000 0.0 0.0
1.615000 0.0 0.0
1.620000 0.0 0.0
1.625000 0.0 0.0
1.630000 0.0 0.0
1.635000 0.0 0.0
1.640000 0.0 0.0
1.645000 0.0 0.0
1.650000 0.0 0.0
1.655000 0.0 0.0
1.660000 0.0 0.0
1.665000 0.0 0.0
1.670000 0.0 0.0
1.675000 0.0 0.0
1.680000 0.0 0.0
1.685000 0.0 0.0
1.690000 0.0 0.0
1.695000 0.0 0.0
1.700000 0.0 0.0
1.705000 0.0 0.0
1.710000 0.0 0.0
1.715000 0.0 0.0
1.720000 0.0 0.0
1.725000 0.0 0.0
1.730000 0.0 0.0
1.735000 0.0 0.0
1.740000 0.0 0.0
1.745000 0.0 0.0
1.750000 0.0 0.0
1.755000 0.0 0.0
1.760000 0.0 0.0
1.765000 0.0 0.0
1.770000 0.0 0.0
1.775000 0.0 0.0
1.780000 0.0 0.0
1.785000 0.0 0.0
1.790000 0.0 0.0
1.795000 0.0 0.0
1.800000 0.0 0.0
1.805000 0.0 0.0
1.810000 0.0 0.0
1.815000 0.0 0.0
1.820000 0.0 0.0
1.825000 0.0 0.0
1.830000 0.0 0.0
1.835000 0.0 0.0
1.840000 0.0 0.0
1.845000 0.0 0.0
1.850000 0.0 0.0
1.855000 0.0 0.0
1.860000 0.0 0.0
1.865000 0.0 0.0
1.870000 0.0 0.0
1.875000 0.0 0.0
1.880000 0.0 0.0
1.885000 0.0 0.0
1.890000 0.0 0.0
1.895000 0.0 0.0
1.900000 0.0 0.0
1.905000 0.0 0.0
1.910000 0.0 0.0
1.915000 0.0 0.0
1.920000 0.0 0.0
1.925000 0.0 0.0
1.930000 0.0 0.0
1.935000 0.0 0.0
1.940000 0.0 0.0
1.945000 0.0 0.0
1.950000 0.0 0.0
1.955000 0.0 0.0
1.960000 0.0 0.0
1.965000 0.0 0.0
1.970000 0.0 0.0
1.975000 0.0 0.0
1.980000 0.0 0.0
1.985000 0.0 0.0
1.990000 0.0 0.0
1.995000 0.0 0.0
2.000000 0.0 0.0
2.005000 0.0 0.0
2.010000 0.0 0.0
2.015000 0.0 0.0
2.020000 0.0 0.0
2.025000 0.0 0.0
2.030000 0.0 0.0
2.035000 0.0 0.0
2.040000 0.0 0.0
2.045000 0.0 0.0
2.050000 0.0 0.0
2.055000 0.0 0.0
2.060000 0.0 0.0
2.065000 0.0 0.0
2.070000 0.0 0.0
2.075000 0.0 0.0
2.080000 0.0 0.0
2.085000 0.0 0.0
2.090000 0.0 0.0
2.095000 0.0 0.0
2.100000 0.0 0.0
2.105000 0.0 0.0
2.110000 0.0 0.0
2.115000 0.0 0.0
2.120000 0.0 0.0
2.125000 0.0 0.0
2.130000 0.0 0.0
2.135000 0.0 0.0
2.140000 0.0 0.0
2.145000 0.0 0.0
2.150000 0.0 0.0
2.155000 0.0 0.0
2.160000 0.0 0.0
2.165000 0.0 0.0
2.170000 0.0 0.0
2.175000 0.0 0.0
2.180000 0.0 0.0
2.185000 0.0 0.0
2.190000 0.0 0.0
2.195000 0.0 0.0
2.200000 0.0 0.0
2.205000 0.0 0.0
2.210000 0.0 0.0
2.215000 0.0 0.0
2.220000 0.0 0.0
2.225000 0.0 0.0
2.230000 0.0 0.0
2.235000 0.0 0.0
2.240000 0.0 0.0
2.245000 0.0 0.0
2.250000 0.0 0.0
2.255000 0.0 0.0
2.260000 0.0 0.0
2.265000 0.0 0.0
2.270000 0.0 0.0
2.275000 0.0 0.0
2.280000 0.0 0.0
2.285000 0.0 0.0
2.290000 0.0 0.0
2.295000 0.0 0.0
2.300000 0.0 0.0
2.305000 0.0 0.0
2.310000 0.0 0.0
2.315000 0.0 0.0
2.320000 0.0 0.0
2.325000 0.0 0.0
2.330000 0.0 0.0
2.335000 0.0 0.0
2.340000 0.0 0.0
2.345000 0.0 0.0
2.350000 0.0 0.0
2.355000 0.0 0.0
2.360000 0.0 0.0
2.365000 0.0 0.0
2.370000 0.0 0.0
2.375000 0.0 0.0
2.380000 0.0 0.0
2.385000 0.0 0.0
2.390000 0.0 0.0
2.395000 0.0 0.0
2.400000 0.0 0.0
2.405000 0.0 0.0
2.410000 0.0 0.0
2.415000 0.0 0.0
2.420000 0.0 0.0
2.425000 0.0 0.0
2.430000 0.0 0.0
2.435000 0.0 0.0
2.440000 0.0 0.0
2.445000 0.0 0.0
2.450000 0.0 0.0
2.455000 0.0 0.0
2.460000 0.0 0.0
2.465000 0.0 0.0
2.470000 0.0 0.0
2.475000 0.0 0.0
2.480000 0.0 0.0
2.485000 0.0 0.0
2.490000 0.0 0.0
2.495000 0.0 0.0
2.500000 0.0 0.0
2.505000 0.0 0.0
2.510000 0.0 0.0
2.515000 0.0 0.0
2.520000 0.0 0.0
2.525000 0.0 0.0
2.530000 0.0 0.0
2.535000 0.0 0.0
2.540000 0.0 0.0
2.545000 0.0 0.0
2.550000 0.0 0.0
2.555000 0.0 0.0
2.560000 0.0 0.0
2.565000 0.0 0.0
2.570000 0.0 0.0
2.575000 0.0 0.0
2.580000 0.0 0.0
2.585000 0.0 0.0
2.590000 0.0 0.0
2.595000 0.0 0.0
2.600000 0.0 0.0
2.605000 0.0 0.0
2.610000 0.0 0.0
2.615000 0.0 0.0
2.620000 0.0 0.0
2.625000 0.0 0.0
2.630000 0.0 0.0
2.635000 0.0 0.0
2.640000 0.0 0.0
2.645000 0.0 0.0
2.650000 0.0 0.0
2.655000 0.0 0.0
2.660000 0.0 0.0
2.665000 0.0 0.0
2.670000 0.0 0.0
2.675000 0.0 0.0
2.680000 0.0 0.0
2.685000 0.0 0.0
2.690000 0.0 0.0
2.695000 0.0 0.0
2.700000 0.0 0.0
2.705000 0.0 0.0
2.710000 0.0 0.0
2.715000 0.0 0.0
2.720000 0.0 0.0
2.725000 0.0 0.0
2.730000 0.0 0.0
2.735000 0.0 0.0
2.740000 0.0 0.0
2.745000 0.0 0.0
2.750000 0.0 0.0
2.755000 0.0 0.0
2.760000 0.0 0.0
2.765000 0.0 0.0
2.770000 0.0 0.0
2.775000 0.0 0.0
2.780000 0.0 0.0
2.785000 0.0 0.0
2.790000 0.0 0.0
2.795000 0.0 0.0
2.800000 0.0 0.0
2.805000 0.0 0.0
2.810000 0.0 0.0
2.815000 0.0 0.0
2.820000 0.0 0.0
2.825000 0.0 0.0
2.830000 0.0 0.0
2.835000 0.0 0.0
2.840000 0.0 0.0
2.845000 0.0 0.0
2.850000 0.0 0.0
2.855000 0.0 0.0
2.860000 0.0 0.0
[...]
      <PointData Scalars="Temperature">
        <DataArray type="Float32" Name="Temperature" format="ascii">
308.150000
307.188658
306.227522
305.266794
304.306679
303.347382
302.389105
301.432052
300.476424
299.522422
298.570246
297.620096
296.672168
295.726660
294.783765
293.843679
292.906591
291.972691
291.042169
290.115209
289.191995
288.272710
287.357532
286.446640
285.540206
284.638405
283.741405
282.849373
281.962475
281.080870
280.204719
279.334176
278.469394
277.610520
276.757700
275.911074
275.070862
274.242356
273.549061
273.206471
273.029117
272.909858
272.817012
272.738665
272.669249
272.605762
272.546413
272.490063
272.435944
272.383521
272.332408
272.282324
272.233054
272.184439
272.136355
272.088704
272.041414
271.994425
271.947692
271.901177
271.854854
271.808698
271.762692
271.716822
271.671077
271.625449
271.579930
271.534516
271.489203
271.443987
271.398867
271.353841
271.308907
271.264067
271.219318
271.174661
271.130096
271.085624
271.041245
270.996959
270.952768
270.908671
270.864671
270.820767
270.776960
270.733252
270.689643
270.646134
270.602726
270.559420
270.516218
270.473118
270.430124
270.387236
270.344454
270.301779
270.259213
270.216756
270.174410
270.132174
270.090051
270.048041
270.006144
269.964362
269.922695
269.881145
269.839712
269.798397
269.757200
269.716124
269.675167
269.634332
269.593619
269.553029
269.512562
269.472219
269.432002
269.391910
269.351944
269.312106
269.272396
269.232815
269.193363
269.154040
269.114849
269.075789
269.036860
268.998065
268.959402
268.920874
268.882480
268.844221
268.806098
268.768111
268.730261
268.692549
268.654974
268.617538
268.580241
268.543084
268.506066
268.469190
268.432454
268.395860
268.359408
268.323099
268.286933
268.250910
268.215031
268.179296
268.143706
268.108261
268.072962
268.037809
268.002802
267.967941
267.933228
267.898662
267.864244
267.829974
267.795852
267.761880
267.728056
267.694381
267.660856
267.627480
267.594255
267.561181
267.528256
267.495483
267.462861
267.430390
267.398070
267.365902
267.333886
267.302023
267.270311
267.238751
267.207345
267.176090
267.144989
267.114041
267.083245
267.052603
267.022114
266.991778
266.961596
266.931567
266.901691
266.871969
266.842401
266.812986
266.783725
266.754618
266.725664
266.696864
266.668218
266.639725
266.611386
266.583200
266.555168
266.527289
266.499564
266.471992
266.444573
266.417308
266.390195
266.363236
266.336429
266.309775
266.283274
266.256925
266.230728
266.204684
266.178791
266.153051
266.127462
266.102024
266.076738
266.051603
266.026619
266.001786
265.977102
265.952570
265.928187
265.903954
265.879870
265.855936
265.832151
265.808514
265.785026
265.761686
265.738494
265.715450
265.692553
265.669803
265.647199
265.624742
265.602431
265.580266
265.558246
265.536371
265.514641
265.493055
265.471613
265.450315
265.429160
265.408147
265.387278
265.366550
265.345964
265.325519
265.305215
265.285052
265.265029
265.245145
265.225401
265.205795
265.186328
265.166998
265.147807
265.128752
265.109833
265.091051
265.072405
265.053893
265.035517
265.017275
264.999166
264.981191
264.963348
264.945638
264.928060
264.910613
264.893297
264.876111
264.859055
264.842129
264.825331
264.808661
264.792119
264.775705
264.759417
264.743255
264.727219
264.711308
264.695522
264.679859
264.664321
264.648905
264.633611
264.618440
264.603389
264.588460
264.573650
264.558960
264.544390
264.529937
264.515603
264.501386
264.487286
264.473302
264.459433
264.445680
264.432041
264.418516
264.405104
264.391806
264.378619
264.365544
264.352579
264.339726
264.326982
264.314347
264.301821
264.289403
264.277092
264.264888
264.252791
264.240799
264.228912
264.217130
264.205452
264.193877
264.182404
264.171034
264.159765
264.148597
264.137529
264.126561
264.115692
264.104922
264.094249
264.083674
264.073196
264.062813
264.052526
264.042334
264.032237
264.022233
264.012322
264.002503
263.992777
263.983142
263.973597
263.964143
263.954778
263.945502
263.936315
263.927215
263.918203
263.909277
263.900437
263.891682
263.883012
263.874427
263.865925
263.857506
263.849170
263.840915
263.832742
263.824649
263.816637
263.808704
263.800851
263.793075
263.785378
263.777757
263.770214
263.762747
263.755355
263.748038
263.740796
263.733627
263.726532
263.719509
263.712559
263.705681
263.698873
263.692136
263.685469
263.678872
263.672343
263.665883
263.659491
263.653166
263.646907
263.640715
263.634589
263.628527
263.622530
263.616598
263.610729
263.604922
263.599179
263.593497
263.587877
263.582318
263.576819
263.571380
263.566001
263.560680
263.555418
263.550214
263.545068
263.539978
263.534944
263.529967
263.525045
263.520178
263.515365
263.510607
263.505902
263.501250
263.496651
263.492103
263.487608
263.483163
263.478769
263.474426
263.470132
263.465888
263.461692
263.457545
263.453446
263.449394
263.445389
263.441431
263.437520
263.433654
263.429833
263.426057
263.422326
263.418639
263.414995
263.411395
263.407837
263.404322
263.400849
263.397417
263.394026
263.390677
263.387367
263.384098
263.380868
263.377677
263.374525
263.371411
263.368335
263.365297
263.362296
263.359333
263.356405
263.353514
263.350658
263.347838
263.345052
263.342302
263.339585
263.336903
263.334254
263.331639
263.329056
263.326506
263.323988
263.321502
263.319047
263.316623
263.314231
263.311869
263.309537
263.307235
263.304962
263.302719
263.300505
263.298319
263.296161
263.294032
263.291930
263.289855
263.287808
263.285787
263.283793
263.281825
263.279883
263.277966
263.276075
263.274208
263.272367
263.270550
263.268757
263.266987
263.265242
263.263520
263.261821
263.260145
263.258491
263.256860
263.255250
263.253663
263.252097
263.250552
263.249028
263.247526
263.246043
263.244581
263.243139
263.241717
263.240314
263.238931
263.237567
263.236222
263.234895
263.233587
263.232297
263.231025
263.229771
263.228534
263.227315
263.226113
263.224927
263.223759
263.222607
263.221471
263.220352
263.219248
263.218160
263.217087
263.216030
263.214988
263.213961
263.212949
263.211951
263.210968
263.209998
263.209043
263.208102
263.207174
263.206260
263.205359
263.204471
263.203597
263.202735
263.201885
263.201049
263.200224
263.199412
263.198611
263.197823
263.197046
263.196281
263.195527
263.194784
263.194052
263.193332
263.192622
263.191922
263.191234
263.190555
263.189887
263.189229
263.188581
263.187943
263.187314
263.186695
263.186085
263.185485
263.184894
263.184311
263.183738
263.183174
263.182618
263.182071
263.181532
263.181002
263.180479
263.179965
263.179459
263.178961
263.178470
263.177988
263.177512
263.177044
263.176584
263.176130
263.175684
263.175245
263.174813
263.174387
263.173969
263.173557
263.173151
263.172752
263.172359
263.171973
263.171593
263.171219
263.170850
263.170488
263.170132
263.169781
263.169436
263.169096
263.168762
263.168434
263.168110
263.167792
263.167480
263.167172
263.166869
263.166571
263.166278
263.165990
263.165707
263.165428
263.165154
263.164884
263.164619
263.164358
263.164102
263.163850
263.163602
263.163358
263.163118
263.162882
263.162650
263.162422
263.162198
263.161977
263.161761
263.161547
263.161338
263.161132
263.160929
263.160730
263.160535
263.160342
263.160153
263.159967
263.159784
263.159605
263.159428
263.159255
263.159084
263.158916
263.158752
263.158590
263.158430
263.158274
263.158120
263.157969
263.157821
263.157675
263.157531
263.157391
263.157252
263.157116
263.156982
263.156851
263.156722
263.156595
263.156471
263.156348
263.156228
263.156110
263.155994
263.155880
263.155768
263.155658
263.155550
263.155444
263.155339
263.155237
263.155136
263.155037
263.154940
263.154845
263.154751
263.154659
263.154569
263.154480
263.154393
263.154307
263.154223
263.154140
263.154059
263.153979
263.153901
263.153824
263.153749
263.153675
263.153602
263.153530
263.153460
263.153391
263.153323
263.153257
263.153192
263.153128
263.153065
263.153003
263.152942
263.152882
263.152824
263.152766
263.152710
263.152654
263.152600
263.152546
263.152494
263.152442
263.152391
263.152342
263.152293
263.152245
263.152198
263.152151
263.152106
263.152061
263.152017
263.151974
263.151932
263.151890
263.151849
263.151809
263.151770
263.151731
263.151693
263.151655
263.151618
263.151582
263.151547
263.151512
263.151478
263.151444
263.151411
263.151378
263.151346
263.151314
263.151283
263.151253
263.151223
263.151194
263.151165
263.151136
263.151108
263.151080
263.151053
263.151026
263.151000
263.150974
263.150948
263.150923
263.150898
263.150874
263.150850
263.150826
263.150803
263.150780
263.150757
263.150735
263.150713
263.150691
263.150669
263.150648
263.150627
263.150606
263.150586
263.150565
263.150545
263.150526
263.150506
263.150487
263.150468
263.150449
263.150430
263.150411
263.150393
263.150375
263.150357
263.150339
263.150321
263.150303
263.150286
263.150268
263.150251
263.150234
263.150217
263.150200
263.150183
263.150166
263.150149
263.150132
263.150116
263.150099
263.150082
263.150066
263.150049
263.150033
263.150016
263.150000
        </DataArray>
      </PointData>
      <CellData>
      </CellData>
    </Piece>
  </UnstructuredGrid>
</VTKFile>
