<?xml version="1.0"?>
<VTKFile type="UnstructuredGrid" version="0.1" byte_order="LittleEndian">
  <UnstructuredGrid>
    <Piece NumberOfPoints="801" NumberOfCells="800">
      <Points>
        <DataArray type="Float32" NumberOfComponents="3" format="ascii">
0.000000 0.0 0.0
0.005000 0.0 0.0
0.010000 0.0 0.0
0.015000 0.0 0.0
0.020000 0.0 0.0
0.025000 0.0 0.0
0.030000 0.0 0.0
0.035000 0.0 0.0
0.040000 0.0 0.0
0.045000 0.0 0.0
0.050000 0.0 0.0
0.055000 0.0 0.0
0.060000 0.0 0.0
0.065000 0.0 0.0
0.070000 0.0 0.0
0.075000 0.0 0.0
0.080000 0.0 0.0
0.085000 0.0 0.0
0.090000 0.0 0.0
0.095000 0.0 0.0
0.100000 0.0 0.0
0.105000 0.0 0.0
0.110000 0.0 0.0
0.115000 0.0 0.0
0.120000 0.0 0.0
0.125000 0.0 0.0
0.130000 0.0 0.0
0.135000 0.0 0.0
0.140000 0.0 0.0
0.145000 0.0 0.0
0.150000 0.0 0.0
0.155000 0.0 0.0
0.160000 0.0 0.0
0.165000 0.0 0.0
0.170000 0.0 0.0
0.175000 0.0 0.0
0.180000 0.0 0.0
0.185000 0.0 0.0
0.190000 0.0 0.0
0.195000 0.0 0.0
0.200000 0.0 0.0
0.205000 0.0 0.0
0.210000 0.0 0.0
0.215000 0.0 0.0
0.220000 0.0 0.0
0.225000 0.0 0.0
0.230000 0.0 0.0
0.235000 0.0 0.0
0.240000 0.0 0.0
0.245000 0.0 0.0
0.250000 0.0 0.0
0.255000 0.0 0.0
0.260000 0.0 0.0
0.265000 0.0 0.0
0.270000 0.0 0.0
0.275000 0.0 0.0
0.280000 0.0 0.0
0.285000 0.0 0.0
0.290000 0.0 0.0
0.295000 0.0 0.0
0.300000 0.0 0.0
0.305000 0.0 0.0
0.310000 0.0 0.0
0.315000 0.0 0.0
0.320000 0.0 0.0
0.325000 0.0 0.0
0.330000 0.0 0.0
0.335000 0.0 0.0
0.340000 0.0 0.0
0.345000 0.0 0.0
0.350000 0.0 0.0
0.355000 0.0 0.0
0.360000 0.0 0.0
0.365000 0.0 0.0
0.370000 0.0 0.0
0.375000 0.0 0.0
0.380000 0.0 0.0
0.385000 0.0 0.0
0.390000 0.0 0.0
0.395000 0.0 0.0
0.400000 0.0 0.0
0.405000 0.0 0.0
0.410000 0.0 0.0
0.415000 0.0 0.0
0.420000 0.0 0.0
0.425000 0.0 0.0
0.430000 0.0 0.0
0.435000 0.0 0.0
0.440000 0.0 0.0
0.445000 0.0 0.0
0.450000 0.0 0.0
0.455000 0.0 0.0
0.460000 0.0 0.0
0.465000 0.0 0.0
0.470000 0.0 0.0
0.475000 0.0 0.0
0.480000 0.0 0.0
0.485000 0.0 0.0
0.490000 0.0 0.0
0.495000 0.0 0.0
0.500000 0.0 0.0
0.505000 0.0 0.0
0.510000 0.0 0.0
0.515000 0.0 0.0
0.520000 0.0 0.0
0.525000 0.0 0.0
0.530000 0.0 0.0
0.535000 0.0 0.0
0.540000 0.0 0.0
0.545000 0.0 0.0
0.550000 0.0 0.0
0.555000 0.0 0.0
0.560000 0.0 0.0
0.565000 0.0 0.0
0.570000 0.0 0.0
0.575000 0.0 0.0
0.580000 0.0 0.0
0.585000 0.0 0.0
0.590000 0.0 0.0
0.595000 0.0 0.0
0.600000 0.0 0.0
0.605000 0.0 0.0
0.610000 0.0 0.0
0.615000 0.0 0.0
0.620000 0.0 0.0
0.625000 0.0 0.0
0.630000 0.0 0.0
0.635000 0.0 0.0
0.640000 0.0 0.0
0.645000 0.0 0.0
0.650000 0.0 0.0
0.655000 0.0 0.0
0.660000 0.0 0.0
0.665000 0.0 0.0
0.670000 0.0 0.0
0.675000 0.0 0.0
0.680000 0.0 0.0
0.685000 0.0 0.0
0.690000 0.0 0.0
0.695000 0.0 0.0
0.700000 0.0 0.0
0.705000 0.0 0.0
0.710000 0.0 0.0
0.715000 0.0 0.0
0.720000 0.0 0.0
0.725000 0.0 0.0
0.730000 0.0 0.0
0.735000 0.0 0.0
0.740000 0.0 0.0
0.745000 0.0 0.0
0.750000 0.0 0.0
0.755000 0.0 0.0
0.760000 0.0 0.0
0.765000 0.0 0.0
0.770000 0.0 0.0
0.775000 0.0 0.0
0.780000 0.0 0.0
0.785000 0.0 0.0
0.790000 0.0 0.0
0.795000 0.0 0.0
0.800000 0.0 0.0
0.805000 0.0 0.0
0.810000 0.0 0.0
0.815000 0.0 0.0
0.820000 0.0 0.0
0.825000 0.0 0.0
0.830000 0.0 0.0
0.835000 0.0 0.0
0.840000 0.0 0.0
0.845000 0.0 0.0
0.850000 0.0 0.0
0.855000 0.0 0.0
0.860000 0.0 0.0
0.865000 0.0 0.0
0.870000 0.0 0.0
0.875000 0.0 0.0
0.880000 0.0 0.0
0.885000 0.0 0.0
0.890000 0.0 0.0
0.895000 0.0 0.0
0.900000 0.0 0.0
0.905000 0.0 0.0
0.910000 0.0 0.0
0.915000 0.0 0.0
0.920000 0.0 0.0
0.925000 0.0 0.0
0.930000 0.0 0.0
0.935000 0.0 0.0
0.940000 0.0 0.0
0.945000 0.0 0.0
0.950000 0.0 0.0
0.955000 0.0 0.0
0.960000 0.0 0.0
0.965000 0.0 0.0
0.970000 0.0 0.0
0.975000 0.0 0.0
0.980000 0.0 0.0
0.985000 0.0 0.0
0.990000 0.0 0.0
0.995000 0.0 0.0
1.000000 0.0 0.0
1.005000 0.0 0.0
1.010000 0.0 0.0
1.015000 0.0 0.0
1.020000 0.0 0.0
1.025000 0.0 0.0
1.030000 0.0 0.0
1.035000 0.0 0.0
1.040000 0.0 0.0
1.045000 0.0 0.0
1.050000 0.0 0.0
1.055000 0.0 0.0
1.060000 0.0 0.0
1.065000 0.0 0.0
1.070000 0.0 0.0
1.075000 0.0 0.0
1.080000 0.0 0.0
1.085000 0.0 0.0
1.090000 0.0 0.0
1.095000 0.0 0.0
1.100000 0.0 0.0
1.105000 0.0 0.0
1.110000 0.0 0.0
1.115000 0.0 0.0
1.120000 0.0 0.0
1.125000 0.0 0.0
1.130000 0.0 0.0
1.135000 0.0 0.0
1.140000 0.0 0.0
1.145000 0.0 0.0
1.150000 0.0 0.0
1.155000 0.0 0.0
1.160000 0.0 0.0
1.165000 0.0 0.0
1.170000 0.0 0.0
1.175000 0.0 0.0
1.180000 0.0 0.0
1.185000 0.0 0.0
1.190000 0.0 0.0
1.195000 0.0 0.0
1.200000 0.0 0.0
1.205000 0.0 0.0
1.210000 0.0 0.0
1.215000 0.0 0.0
1.220000 0.0 0.0
1.225000 0.0 0.0
1.230000 0.0 0.0
1.235000 0.0 0.0
1.240000 0.0 0.0
1.245000 0.0 0.0
1.250000 0.0 0.0
1.255000 0.0 0.0
1.260000 0.0 0.0
1.265000 0.0 0.0
1.270000 0.0 0.0
1.275000 0.0 0.0
1.280000 0.0 0.0
1.285000 0.0 0.0
1.290000 0.0 0.0
1.295000 0.0 0.0
1.300000 0.0 0.0
1.305000 0.0 0.0
1.310000 0.0 0.0
1.315000 0.0 0.0
1.320000 0.0 0.0
1.325000 0.0 0.0
1.330000 0.0 0.0
1.335000 0.0 0.0
1.340000 0.0 0.0
1.345000 0.0 0.0
1.350000 0.0 0.0
1.355000 0.0 0.0
1.360000 0.0 0.0
1.365000 0.0 0.0
1.370000 0.0 0.0
1.375000 0.0 0.0
1.380000 0.0 0.0
1.385000 0.0 0.0
1.390000 0.0 0.0
1.395000 0.0 0.0
1.400000 0.0 0.0
1.405000 0.0 0.0
1.410000 0.0 0.0
1.415000 0.0 0.0
1.420000 0.0 0.0
1.425000 0.0 0.0
1.430000 0.0 0.0
1.435000 0.0 0.0
1.440000 0.0 0.0
1.445000 0.0 0.0
1.450000 0.0 0.0
1.455000 0.0 0.0
1.460000 0.0 0.0
1.465000 0.0 0.0
1.470000 0.0 0.0
1.475000 0.0 0.0
1.480000 0.0 0.0
1.485000 0.0 0.0
1.490000 0.0 0.0
1.495000 0.0 0.0
1.500000 0.0 0.0
1.505000 0.0 0.0
1.510000 0.0 0.0
1.515000 0.0 0.0
1.520000 0.0 0.0
1.525000 0.0 0.0
1.530000 0.0 0.0
1.535000 0.0 0.0
1.540000 0.0 0.0
1.545000 0.0 0.0
1.550000 0.0 0.0
1.555000 0.0 0.0
1.560000 0.0 0.0
1.565000 0.0 0.0
1.570000 0.0 0.0
1.575000 0.0 0.0
1.580000 0.0 0.0
1.585000 0.0 0.0
1.590000 0.0 0.0
1.595000 0.0 0.0
1.600000 0.0 0.0
1.605000 0.0 0.0
1.610000 0.0 0.0
1.615000 0.0 0.0
1.620000 0.0 0.0
1.625000 0.0 0.0
1.630000 0.0 0.0
1.635000 0.0 0.0
1.640000 0.0 0.0
1.645000 0.0 0.0
1.650000 0.0 0.0
1.655000 0.0 0.0
1.660000 0.0 0.0
1.665000 0.0 0.0
1.670000 0.0 0.0
1.675000 0.0 0.0
1.680000 0.0 0.0
1.685000 0.0 0.0
1.690000 0.0 0.0
1.695000 0.0 0.0
1.700000 0.0 0.0
1.705000 0.0 0.0
1.710000 0.0 0.0
1.715000 0.0 0.0
1.720000 0.0 0.0
1.725000 0.0 0.0
1.730000 0.0 0.0
1.735000 0.0 0.0
1.740000 0.0 0.0
1.745000 0.0 0.0
1.750000 0.0 0.0
1.755000 0.0 0.0
1.760000 0.0 0.0
1.765000 0.0 0.0
1.770000 0.0 0.0
1.775000 0.0 0.0
1.780000 0.0 0.0
1.785000 0.0 0.0
1.790000 0.0 0.0
1.795000 0.0 0.0
1.800000 0.0 0.0
1.805000 0.0 0.0
1.810000 0.0 0.0
1.815000 0.0 0.0
1.820000 0.0 0.0
1.825000 0.0 0.0
1.830000 0.0 0.0
1.835000 0.0 0.0
1.840000 0.0 0.0
1.845000 0.0 0.0
1.850000 0.0 0.0
1.855000 0.0 0.0
1.860000 0.0 0.0
1.865000 0.0 0.0
1.870000 0.0 0.0
1.875000 0.0 0.0
1.880000 0.0 0.0
1.885000 0.0 0.0
1.890000 0.0 0.0
1.895000 0.0 0.0
1.900000 0.0 0.0
1.905000 0.0 0.0
1.910000 0.0 0.0
1.915000 0.0 0.0
1.920000 0.0 0.0
1.925000 0.0 0.0
1.930000 0.0 0.0
1.935000 0.0 0.0
1.940000 0.0 0.0
1.945000 0.0 0.0
1.950000 0.0 0.0
1.955000 0.0 0.0
1.960000 0.0 0.0
1.965000 0.0 0.0
1.970000 0.0 0.0
1.975000 0.0 0.0
1.980000 0.0 0.0
1.985000 0.0 0.0
1.990000 0.0 0.0
1.995000 0.0 0.0
2.000000 0.0 0.0
2.005000 0.0 0.0
2.010000 0.0 0.0
2.015000 0.0 0.0
2.020000 0.0 0.0
2.025000 0.0 0.0
2.030000 0.0 0.0
2.035000 0.0 0.0
2.040000 0.0 0.0
2.045000 0.0 0.0
2.050000 0.0 0.0
2.055000 0.0 0.0
2.060000 0.0 0.0
2.065000 0.0 0.0
2.070000 0.0 0.0
2.075000 0.0 0.0
2.080000 0.0 0.0
2.085000 0.0 0.0
2.090000 0.0 0.0
2.095000 0.0 0.0
2.100000 0.0 0.0
2.105000 0.0 0.0
2.110000 0.0 0.0
2.115000 0.0 0.0
2.120000 0.0 0.0
2.125000 0.0 0.0
2.130000 0.0 0.0
2.135000 0.0 0.0
2.140000 0.0 0.0
2.145000 0.0 0.0
2.150000 0.0 0.0
2.155000 0.0 0.0
2.160000 0.0 0.0
2.165000 0.0 0.0
2.170000 0.0 0.0
2.175000 0.0 0.0
2.180000 0.0 0.0
2.185000 0.0 0.0
2.190000 0.0 0.0
2.195000 0.0 0.0
2.200000 0.0 0.0
2.205000 0.0 0.0
2.210000 0.0 0.0
2.215000 0.0 0.0
2.220000 0.0 0.0
2.225000 0.0 0.0
2.230000 0.0 0.0
2.235000 0.0 0.0
2.240000 0.0 0.0
2.245000 0.0 0.0
2.250000 0.0 0.0
2.255000 0.0 0.0
2.260000 0.0 0.0
2.265000 0.0 0.0
2.270000 0.0 0.0
2.275000 0.0 0.0
2.280000 0.0 0.0
2.285000 0.0 0.0
2.290000 0.0 0.0
2.295000 0.0 0.0
2.300000 0.0 0.0
2.305000 0.0 0.0
2.310000 0.0 0.0
2.315000 0.0 0.0
2.320000 0.0 0.0
2.325000 0.0 0.0
2.330000 0.0 0.0
2.335000 0.0 0.0
2.340000 0.0 0.0
2.345000 0.0 0.0
2.350000 0.0 0.0
2.355000 0.0 0.0
2.360000 0.0 0.0
2.365000 0.0 0.0
2.370000 0.0 0.0
2.375000 0.0 0.0
2.380000 0.0 0.0
2.385000 0.0 0.0
2.390000 0.0 0.0
2.395000 0.0 0.0
2.400000 0.0 0.0
2.405000 0.0 0.0
2.410000 0.0 0.0
2.415000 0.0 0.0
2.420000 0.0 0.0
2.425000 0.0 0.0
2.430000 0.0 0.0
2.435000 0.0 0.0
2.440000 0.0 0.0
2.445000 0.0 0.0
2.450000 0.0 0.0
2.455000 0.0 0.0
2.460000 0.0 0.0
2.465000 0.0 0.0
2.470000 0.0 0.0
2.475000 0.0 0.0
2.480000 0.0 0.0
2.485000 0.0 0.0
2.490000 0.0 0.0
2.495000 0.0 0.0
2.500000 0.0 0.0
2.505000 0.0 0.0
2.510000 0.0 0.0
2.515000 0.0 0.0
2.520000 0.0 0.0
2.525000 0.0 0.0
2.530000 0.0 0.0
2.535000 0.0 0.0
2.540000 0.0 0.0
2.545000 0.0 0.0
2.550000 0.0 0.0
2.555000 0.0 0.0
2.560000 0.0 0.0
2.565000 0.0 0.0
2.570000 0.0 0.0
2.575000 0.0 0.0
2.580000 0.0 0.0
2.585000 0.0 0.0
2.590000 0.0 0.0
2.595000 0.0 0.0
2.600000 0.0 0.0
2.605000 0.0 0.0
2.610000 0.0 0.0
2.615000 0.0 0.0
2.620000 0.0 0.0
2.625000 0.0 0.0
2.630000 0.0 0.0
2.635000 0.0 0.0
2.640000 0.0 0.0
2.645000 0.0 0.0
2.650000 0.0 0.0
2.655000 0.0 0.0
2.660000 0.0 0.0
2.665000 0.0 0.0
2.670000 0.0 0.0
2.675000 0.0 0.0
2.680000 0.0 0.0
2.685000 0.0 0.0
2.690000 0.0 0.0
2.695000 0.0 0.0
2.700000 0.0 0.0
2.705000 0.0 0.0
2.710000 0.0 0.0
2.715000 0.0 0.0
2.720000 0.0 0.0
2.725000 0.0 0.0
2.730000 0.0 0.0
2.735000 0.0 0.0
2.740000 0.0 0.0
2.745000 0.0 0.0
2.750000 0.0 0.0
2.755000 0.0 0.0
2.760000 0.0 0.0
2.765000 0.0 0.0
2.770000 0.0 0.0
2.775000 0.0 0.0
2.780000 0.0 0.0
2.785000 0.0 0.0
2.790000 0.0 0.0
2.795000 0.0 0.0
2.800000 0.0 0.0
2.805000 0.0 0.0
2.810000 0.0 0.0
2.815000 0.0 0.0
2.820000 0.0 0.0
2.825000 0.0 0.0
2.830000 0.0 0.0
2.835000 0.0 0.0
2.840000 0.0 0.0
2.845000 0.0 0.0
2.850000 0.0 0.0
2.855000 0.0 0.0
2.860000 0.0 0.0
[...]
      <PointData Scalars="Temperature">
        <DataArray type="Float32" Name="Temperature" format="ascii">
308.150000
306.447585
304.746211
303.046916
301.350734
299.658694
297.971820
296.291122
294.617601
292.952246
291.296025
289.649892
288.014777
286.391586
284.781196
283.184455
281.602171
280.035113
278.484005
276.949517
275.432297
273.972680
273.236538
272.960880
272.789047
272.653216
272.534087
272.423914
272.318953
272.217197
272.117496
272.019173
271.921815
271.825174
271.729096
271.633490
271.538303
271.443505
271.349081
271.255027
271.161341
271.068030
270.975099
270.882558
270.790413
270.698676
270.607356
270.516462
270.426005
270.335994
270.246438
270.157347
270.068731
269.980598
269.892958
269.805819
269.719190
269.633080
269.547496
269.462447
269.377941
269.293986
269.210588
269.127756
269.045495
268.963814
268.882719
268.802216
268.722311
268.643011
268.564322
268.486248
268.408796
268.331971
268.255777
268.180219
268.105302
268.031031
267.957409
267.884440
267.812128
267.740477
267.669490
267.599169
267.529518
267.460540
267.392236
267.324609
267.257661
267.191394
267.125809
267.060908
266.996692
266.933163
266.870320
266.808164
266.746697
266.685917
266.625826
266.566423
266.507707
266.449679
266.392337
266.335681
266.279710
266.224422
266.169816
266.115890
266.062644
266.010074
265.958179
265.906957
265.856405
265.806521
265.757303
265.708747
265.660851
265.613611
265.567025
265.521090
265.475800
265.431155
265.387148
265.343778
265.301040
265.258929
265.217443
265.176576
265.136324
265.096683
265.057649
265.019217
264.981383
264.944140
264.907486
264.871414
264.835921
264.801000
264.766647
264.732857
264.699624
264.666943
264.634810
264.603217
264.572161
264.541636
264.511636
264.482155
264.453189
264.424731
264.396775
264.369318
264.342351
264.315871
264.289870
264.264345
264.239288
264.214693
264.190556
264.166871
264.143631
264.120832
264.098466
264.076529
264.055015
264.033918
264.013232
263.992951
263.973071
263.953584
263.934487
263.915772
263.897435
263.879469
263.861869
263.844631
263.827747
263.811213
263.795023
263.779172
263.763654
263.748465
263.733598
263.719049
263.704812
263.690883
263.677255
263.663924
263.650885
263.638133
263.625663
263.613470
263.601549
263.589895
263.578504
263.567370
263.556490
263.545858
263.535470
263.525321
263.515407
263.505724
263.496267
263.487032
263.478014
263.469209
263.460614
263.452224
263.444035
263.436043
263.428244
263.420634
263.413209
263.405967
263.398902
263.392011
263.385291
263.378738
263.372348
263.366119
263.360046
263.354127
263.348357
263.342734
263.337255
263.331917
263.326715
263.321648
263.316713
263.311905
263.307224
263.302665
263.298226
263.293904
263.289696
263.285600
263.281614
263.277734
263.273959
263.270285
263.266711
263.263234
263.259851
263.256561
263.253361
263.250248
263.247222
263.244280
263.241419
263.238638
263.235935
263.233308
263.230754
263.228273
263.225862
263.223519
263.221243
263.219032
263.216884
263.214799
263.212773
263.210806
263.208896
263.207041
263.205241
263.203494
263.201797
263.200151
263.198553
263.197003
263.195498
263.194039
263.192623
263.191249
263.189917
263.188624
263.187371
263.186156
263.184978
263.183835
263.182728
263.181654
263.180613
263.179605
263.178627
263.177680
263.176762
263.175872
263.175011
263.174176
263.173367
263.172584
263.171826
263.171091
263.170380
263.169691
263.169024
263.168379
263.167754
263.167149
263.166564
263.165997
263.165449
263.164918
263.164405
263.163908
263.163428
263.162963
263.162513
263.162079
263.161658
263.161251
263.160858
263.160478
263.160110
263.159755
263.159412
263.159080
263.158759
263.158449
263.158149
263.157859
263.157579
263.157309
263.157048
263.156796
263.156552
263.156317
263.156089
263.155870
263.155658
263.155453
263.155255
263.155065
263.154880
263.154703
263.154531
263.154365
263.154206
263.154051
263.153902
263.153759
263.153620
263.153487
263.153358
263.153233
263.153113
263.152998
263.152886
263.152778
263.152675
263.152574
263.152478
263.152385
263.152295
263.152209
263.152126
263.152045
263.151968
263.151893
263.151822
263.151752
263.151686
263.151621
263.151559
263.151500
263.151442
263.151387
263.151334
263.151283
263.151233
263.151186
263.151140
263.151096
263.151053
263.151012
263.150973
263.150935
263.150899
263.150864
263.150830
263.150797
263.150766
263.150736
263.150707
263.150679
263.150652
263.150627
263.150602
263.150578
263.150555
263.150533
263.150512
263.150492
263.150472
263.150453
263.150435
263.150418
263.150401
263.150385
263.150369
263.150354
263.150340
263.150326
263.150313
263.150301
263.150288
263.150277
263.150266
263.150255
263.150244
263.150234
263.150225
263.150216
263.150207
263.150198
263.150190
263.150182
263.150175
263.150168
263.150161
263.150154
263.150148
263.150142
263.150136
263.150130
263.150125
263.150120
263.150115
263.150110
263.150105
263.150101
263.150097
263.150093
263.150089
263.150085
263.150081
263.150078
263.150075
263.150072
263.150069
263.150066
263.150063
263.150060
263.150058
263.150055
263.150053
263.150051
263.150048
263.150046
263.150044
263.150043
263.150041
263.150039
263.150037
263.150036
263.150034
263.150033
263.150031
263.150030
263.150029
263.150027
263.150026
263.150025
263.150024
263.150023
263.150022
263.150021
263.150020
263.150019
263.150018
263.150018
263.150017
263.150016
263.150015
263.150015
263.150014
263.150013
263.150013
263.150012
263.150012
263.150011
263.150011
263.150010
263.150010
263.150009
263.150009
263.150009
263.150008
263.150008
263.150007
263.150007
263.150007
263.150007
263.150006
263.150006
263.150006
263.150005
263.150005
263.150005
263.150005
263.150005
263.150004
263.150004
263.150004
263.150004
263.150004
263.150003
263.150003
263.150003
263.150003
263.150003
263.150003
263.150003
263.150002
263.150002
263.150002
263.150002
263.150002
263.150002
263.150002
263.150002
263.150002
263.150002
263.150002
263.150001
263.150001
263.150001
263.150001
263.150001
263.150001
263.150001
263.150001
263.150001
263.150001
263.150001
263.150001
263.150001
263.150001
263.150001
263.150001
263.150001
263.150001
263.150001
263.150001
263.150001
263.150001
263.150001
263.150000
263.150000
263.150000
263.150000
263.150000
263.150000
263.150000
263.150000
263.150000
263.150000
263.150000
263.150000
263.150000
263.150000
263.150000
263.150000
263.150000
263.150000
263.150000
263.150000
263.150000
263.150000
263.150000
263.150000
263.150000
263.150000
263.150000
263.150000
263.150000
263.150000
263.150000
263.150000
263.150000
263.150000
263.150000
263.150000
263.150000
263.150000
263.150000
263.150000
263.150000
263.150000
263.150000
263.150000
263.150000
263.150000
263.150000
263.150000
263.150000
263.150000
263.150000
263.150000
263.150000
263.150000
263.150000
263.150000
263.150000
263.150000
263.150000
263.150000
263.150000
263.150000
263.150000
263.150000
263.150000
263.150000
263.150000
263.150000
263.150000
263.150000
263.150000
263.150000
263.150000
263.150000
263.150000
263.150000
263.150000
263.150000
263.150000
263.150000
263.150000
263.150000
263.150000
263.150000
263.150000
263.150000
263.150000
263.150000
263.150000
263.150000
263.150000
263.150000
263.150000
263.150000
263.150000
263.150000
263.150000
263.150000
263.150000
263.150000
263.150000
263.150000
263.150000
263.150000
263.150000
263.150000
263.150000
263.150000
263.150000
263.150000
263.150000
263.150000
263.150000
263.150000
263.150000
263.150000
263.150000
263.150000
263.150000
263.150000
263.150000
263.150000
263.150000
263.150000
263.150000
263.150000
263.150000
263.150000
263.150000
263.150000
263.150000
263.150000
263.150000
263.150000
263.150000
263.150000
263.150000
263.150000
263.150000
263.150000
263.150000
263.150000
263.150000
263.150000
263.150000
263.150000
263.150000
263.150000
263.150000
263.150000
263.150000
263.150000
263.150000
263.150000
263.150000
263.150000
263.150000
263.150000
263.150000
263.150000
263.150000
263.150000
263.150000
263.150000
263.150000
263.150000
263.150000
263.150000
263.150000
263.150000
263.150000
263.150000
263.150000
263.150000
263.150000
263.150000
263.150000
263.150000
263.150000
263.150000
263.150000
263.150000
263.150000
263.150000
263.150000
263.150000
263.150000
263.150000
263.150000
263.150000
263.150000
263.150000
263.150000
263.150000
263.150000
263.150000
263.150000
263.150000
263.150000
263.150000
263.150000
263.150000
263.150000
263.150000
263.150000
263.150000
263.150000
263.150000
263.150000
263.150000
263.150000
263.150000
263.150000
263.150000
263.150000
263.150000
263.150000
263.150000
263.150000
263.150000
263.150000
263.150000
263.150000
263.150000
263.150000
263.150000
263.150000
263.150000
263.150000
263.150000
263.150000
263.150000
263.150000
263.150000
263.150000
263.150000
263.150000
263.150000
263.150000
263.150000
263.150000
263.150000
263.150000
263.150000
263.150000
263.150000
263.150000
263.150000
263.150000
263.150000
263.150000
263.150000
263.150000
        </DataArray>
      </PointData>
      <CellData>
      </CellData>
    </Piece>
  </UnstructuredGrid>
</VTKFile>
