<?xml version="1.0"?>
<VTKFile type="UnstructuredGrid" version="0.1" byte_order="LittleEndian">
  <UnstructuredGrid>
    <Piece NumberOfPoints="801" NumberOfCells="800">
      <Points>
        <DataArray type="Float32" NumberOfComponents="3" format="ascii">
0.000000 0.0 0.0
0.005000 0.0 0.0
0.010000 0.0 0.0
0.015000 0.0 0.0
0.020000 0.0 0.0
0.025000 0.0 0.0
0.030000 0.0 0.0
0.035000 0.0 0.0
0.040000 0.0 0.0
0.045000 0.0 0.0
0.050000 0.0 0.0
0.055000 0.0 0.0
0.060000 0.0 0.0
0.065000 0.0 0.0
0.070000 0.0 0.0
0.075000 0.0 0.0
0.080000 0.0 0.0
0.085000 0.0 0.0
0.090000 0.0 0.0
0.095000 0.0 0.0
0.100000 0.0 0.0
0.105000 0.0 0.0
0.110000 0.0 0.0
0.115000 0.0 0.0
0.120000 0.0 0.0
0.125000 0.0 0.0
0.130000 0.0 0.0
0.135000 0.0 0.0
0.140000 0.0 0.0
0.145000 0.0 0.0
0.150000 0.0 0.0
0.155000 0.0 0.0
0.160000 0.0 0.0
0.165000 0.0 0.0
0.170000 0.0 0.0
0.175000 0.0 0.0
0.180000 0.0 0.0
0.185000 0.0 0.0
0.190000 0.0 0.0
0.195000 0.0 0.0
0.200000 0.0 0.0
0.205000 0.0 0.0
0.210000 0.0 0.0
0.215000 0.0 0.0
0.220000 0.0 0.0
0.225000 0.0 0.0
0.230000 0.0 0.0
0.235000 0.0 0.0
0.240000 0.0 0.0
0.245000 0.0 0.0
0.250000 0.0 0.0
0.255000 0.0 0.0
0.260000 0.0 0.0
0.265000 0.0 0.0
0.270000 0.0 0.0
0.275000 0.0 0.0
0.280000 0.0 0.0
0.285000 0.0 0.0
0.290000 0.0 0.0
0.295000 0.0 0.0
0.300000 0.0 0.0
0.305000 0.0 0.0
0.310000 0.0 0.0
0.315000 0.0 0.0
0.320000 0.0 0.0
0.325000 0.0 0.0
0.330000 0.0 0.0
0.335000 0.0 0.0
0.340000 0.0 0.0
0.345000 0.0 0.0
0.350000 0.0 0.0
0.355000 0.0 0.0
0.360000 0.0 0.0
0.365000 0.0 0.0
0.370000 0.0 0.0
0.375000 0.0 0.0
0.380000 0.0 0.0
0.385000 0.0 0.0
0.390000 0.0 0.0
0.395000 0.0 0.0
0.400000 0.0 0.0
0.405000 0.0 0.0
0.410000 0.0 0.0
0.415000 0.0 0.0
0.420000 0.0 0.0
0.425000 0.0 0.0
0.430000 0.0 0.0
0.435000 0.0 0.0
0.440000 0.0 0.0
0.445000 0.0 0.0
0.450000 0.0 0.0
0.455000 0.0 0.0
0.460000 0.0 0.0
0.465000 0.0 0.0
0.470000 0.0 0.0
0.475000 0.0 0.0
0.480000 0.0 0.0
0.485000 0.0 0.0
0.490000 0.0 0.0
0.495000 0.0 0.0
0.500000 0.0 0.0
0.505000 0.0 0.0
0.510000 0.0 0.0
0.515000 0.0 0.0
0.520000 0.0 0.0
0.525000 0.0 0.0
0.530000 0.0 0.0
0.535000 0.0 0.0
0.540000 0.0 0.0
0.545000 0.0 0.0
0.550000 0.0 0.0
0.555000 0.0 0.0
0.560000 0.0 0.0
0.565000 0.0 0.0
0.570000 0.0 0.0
0.575000 0.0 0.0
0.580000 0.0 0.0
0.585000 0.0 0.0
0.590000 0.0 0.0
0.595000 0.0 0.0
0.600000 0.0 0.0
0.605000 0.0 0.0
0.610000 0.0 0.0
0.615000 0.0 0.0
0.620000 0.0 0.0
0.625000 0.0 0.0
0.630000 0.0 0.0
0.635000 0.0 0.0
0.640000 0.0 0.0
0.645000 0.0 0.0
0.650000 0.0 0.0
0.655000 0.0 0.0
0.660000 0.0 0.0
0.665000 0.0 0.0
0.670000 0.0 0.0
0.675000 0.0 0.0
0.680000 0.0 0.0
0.685000 0.0 0.0
0.690000 0.0 0.0
0.695000 0.0 0.0
0.700000 0.0 0.0
0.705000 0.0 0.0
0.710000 0.0 0.0
0.715000 0.0 0.0
0.720000 0.0 0.0
0.725000 0.0 0.0
0.730000 0.0 0.0
0.735000 0.0 0.0
0.740000 0.0 0.0
0.745000 0.0 0.0
0.750000 0.0 0.0
0.755000 0.0 0.0
0.760000 0.0 0.0
0.765000 0.0 0.0
0.770000 0.0 0.0
0.775000 0.0 0.0
0.780000 0.0 0.0
0.785000 0.0 0.0
0.790000 0.0 0.0
0.795000 0.0 0.0
0.800000 0.0 0.0
0.805000 0.0 0.0
0.810000 0.0 0.0
0.815000 0.0 0.0
0.820000 0.0 0.0
0.825000 0.0 0.0
0.830000 0.0 0.0
0.835000 0.0 0.0
0.840000 0.0 0.0
0.845000 0.0 0.0
0.850000 0.0 0.0
0.855000 0.0 0.0
0.860000 0.0 0.0
0.865000 0.0 0.0
0.870000 0.0 0.0
0.875000 0.0 0.0
0.880000 0.0 0.0
0.885000 0.0 0.0
0.890000 0.0 0.0
0.895000 0.0 0.0
0.900000 0.0 0.0
0.905000 0.0 0.0
0.910000 0.0 0.0
0.915000 0.0 0.0
0.920000 0.0 0.0
0.925000 0.0 0.0
0.930000 0.0 0.0
0.935000 0.0 0.0
0.940000 0.0 0.0
0.945000 0.0 0.0
0.950000 0.0 0.0
0.955000 0.0 0.0
0.960000 0.0 0.0
0.965000 0.0 0.0
0.970000 0.0 0.0
0.975000 0.0 0.0
0.980000 0.0 0.0
0.985000 0.0 0.0
0.990000 0.0 0.0
0.995000 0.0 0.0
1.000000 0.0 0.0
1.005000 0.0 0.0
1.010000 0.0 0.0
1.015000 0.0 0.0
1.020000 0.0 0.0
1.025000 0.0 0.0
1.030000 0.0 0.0
1.035000 0.0 0.0
1.040000 0.0 0.0
1.045000 0.0 0.0
1.050000 0.0 0.0
1.055000 0.0 0.0
1.060000 0.0 0.0
1.065000 0.0 0.0
1.070000 0.0 0.0
1.075000 0.0 0.0
1.080000 0.0 0.0
1.085000 0.0 0.0
1.090000 0.0 0.0
1.095000 0.0 0.0
1.100000 0.0 0.0
1.105000 0.0 0.0
1.110000 0.0 0.0
1.115000 0.0 0.0
1.120000 0.0 0.0
1.125000 0.0 0.0
1.130000 0.0 0.0
1.135000 0.0 0.0
1.140000 0.0 0.0
1.145000 0.0 0.0
1.150000 0.0 0.0
1.155000 0.0 0.0
1.160000 0.0 0.0
1.165000 0.0 0.0
1.170000 0.0 0.0
1.175000 0.0 0.0
1.180000 0.0 0.0
1.185000 0.0 0.0
1.190000 0.0 0.0
1.195000 0.0 0.0
1.200000 0.0 0.0
1.205000 0.0 0.0
1.210000 0.0 0.0
1.215000 0.0 0.0
1.220000 0.0 0.0
1.225000 0.0 0.0
1.230000 0.0 0.0
1.235000 0.0 0.0
1.240000 0.0 0.0
1.245000 0.0 0.0
1.250000 0.0 0.0
1.255000 0.0 0.0
1.260000 0.0 0.0
1.265000 0.0 0.0
1.270000 0.0 0.0
1.275000 0.0 0.0
1.280000 0.0 0.0
1.285000 0.0 0.0
1.290000 0.0 0.0
1.295000 0.0 0.0
1.300000 0.0 0.0
1.305000 0.0 0.0
1.310000 0.0 0.0
1.315000 0.0 0.0
1.320000 0.0 0.0
1.325000 0.0 0.0
1.330000 0.0 0.0
1.335000 0.0 0.0
1.340000 0.0 0.0
1.345000 0.0 0.0
1.350000 0.0 0.0
1.355000 0.0 0.0
1.360000 0.0 0.0
1.365000 0.0 0.0
1.370000 0.0 0.0
1.375000 0.0 0.0
1.380000 0.0 0.0
1.385000 0.0 0.0
1.390000 0.0 0.0
1.395000 0.0 0.0
1.400000 0.0 0.0
1.405000 0.0 0.0
1.410000 0.0 0.0
1.415000 0.0 0.0
1.420000 0.0 0.0
1.425000 0.0 0.0
1.430000 0.0 0.0
1.435000 0.0 0.0
1.440000 0.0 0.0
1.445000 0.0 0.0
1.450000 0.0 0.0
1.455000 0.0 0.0
1.460000 0.0 0.0
1.465000 0.0 0.0
1.470000 0.0 0.0
1.475000 0.0 0.0
1.480000 0.0 0.0
1.485000 0.0 0.0
1.490000 0.0 0.0
1.495000 0.0 0.0
1.500000 0.0 0.0
1.505000 0.0 0.0
1.510000 0.0 0.0
1.515000 0.0 0.0
1.520000 0.0 0.0
1.525000 0.0 0.0
1.530000 0.0 0.0
1.535000 0.0 0.0
1.540000 0.0 0.0
1.545000 0.0 0.0
1.550000 0.0 0.0
1.555000 0.0 0.0
1.560000 0.0 0.0
1.565000 0.0 0.0
1.570000 0.0 0.0
1.575000 0.0 0.0
1.580000 0.0 0.0
1.585000 0.0 0.0
1.590000 0.0 0.0
1.595000 0.0 0.0
1.600000 0.0 0.0
1.605000 0.0 0.0
1.610000 0.0 0.0
1.615000 0.0 0.0
1.620000 0.0 0.0
1.625000 0.0 0.0
1.630000 0.0 0.0
1.635000 0.0 0.0
1.640000 0.0 0.0
1.645000 0.0 0.0
1.650000 0.0 0.0
1.655000 0.0 0.0
1.660000 0.0 0.0
1.665000 0.0 0.0
1.670000 0.0 0.0
1.675000 0.0 0.0
1.680000 0.0 0.0
1.685000 0.0 0.0
1.690000 0.0 0.0
1.695000 0.0 0.0
1.700000 0.0 0.0
1.705000 0.0 0.0
1.710000 0.0 0.0
1.715000 0.0 0.0
1.720000 0.0 0.0
1.725000 0.0 0.0
1.730000 0.0 0.0
1.735000 0.0 0.0
1.740000 0.0 0.0
1.745000 0.0 0.0
1.750000 0.0 0.0
1.755000 0.0 0.0
1.760000 0.0 0.0
1.765000 0.0 0.0
1.770000 0.0 0.0
1.775000 0.0 0.0
1.780000 0.0 0.0
1.785000 0.0 0.0
1.790000 0.0 0.0
1.795000 0.0 0.0
1.800000 0.0 0.0
1.805000 0.0 0.0
1.810000 0.0 0.0
1.815000 0.0 0.0
1.820000 0.0 0.0
1.825000 0.0 0.0
1.830000 0.0 0.0
1.835000 0.0 0.0
1.840000 0.0 0.0
1.845000 0.0 0.0
1.850000 0.0 0.0
1.855000 0.0 0.0
1.860000 0.0 0.0
1.865000 0.0 0.0
1.870000 0.0 0.0
1.875000 0.0 0.0
1.880000 0.0 0.0
1.885000 0.0 0.0
1.890000 0.0 0.0
1.895000 0.0 0.0
1.900000 0.0 0.0
1.905000 0.0 0.0
1.910000 0.0 0.0
1.915000 0.0 0.0
1.920000 0.0 0.0
1.925000 0.0 0.0
1.930000 0.0 0.0
1.935000 0.0 0.0
1.940000 0.0 0.0
1.945000 0.0 0.0
1.950000 0.0 0.0
1.955000 0.0 0.0
1.960000 0.0 0.0
1.965000 0.0 0.0
1.970000 0.0 0.0
1.975000 0.0 0.0
1.980000 0.0 0.0
1.985000 0.0 0.0
1.990000 0.0 0.0
1.995000 0.0 0.0
2.000000 0.0 0.0
2.005000 0.0 0.0
2.010000 0.0 0.0
2.015000 0.0 0.0
2.020000 0.0 0.0
2.025000 0.0 0.0
2.030000 0.0 0.0
2.035000 0.0 0.0
2.040000 0.0 0.0
2.045000 0.0 0.0
2.050000 0.0 0.0
2.055000 0.0 0.0
2.060000 0.0 0.0
2.065000 0.0 0.0
2.070000 0.0 0.0
2.075000 0.0 0.0
2.080000 0.0 0.0
2.085000 0.0 0.0
2.090000 0.0 0.0
2.095000 0.0 0.0
2.100000 0.0 0.0
2.105000 0.0 0.0
2.110000 0.0 0.0
2.115000 0.0 0.0
2.120000 0.0 0.0
2.125000 0.0 0.0
2.130000 0.0 0.0
2.135000 0.0 0.0
2.140000 0.0 0.0
2.145000 0.0 0.0
2.150000 0.0 0.0
2.155000 0.0 0.0
2.160000 0.0 0.0
2.165000 0.0 0.0
2.170000 0.0 0.0
2.175000 0.0 0.0
2.180000 0.0 0.0
2.185000 0.0 0.0
2.190000 0.0 0.0
2.195000 0.0 0.0
2.200000 0.0 0.0
2.205000 0.0 0.0
2.210000 0.0 0.0
2.215000 0.0 0.0
2.220000 0.0 0.0
2.225000 0.0 0.0
2.230000 0.0 0.0
2.235000 0.0 0.0
2.240000 0.0 0.0
2.245000 0.0 0.0
2.250000 0.0 0.0
2.255000 0.0 0.0
2.260000 0.0 0.0
2.265000 0.0 0.0
2.270000 0.0 0.0
2.275000 0.0 0.0
2.280000 0.0 0.0
2.285000 0.0 0.0
2.290000 0.0 0.0
2.295000 0.0 0.0
2.300000 0.0 0.0
2.305000 0.0 0.0
2.310000 0.0 0.0
2.315000 0.0 0.0
2.320000 0.0 0.0
2.325000 0.0 0.0
2.330000 0.0 0.0
2.335000 0.0 0.0
2.340000 0.0 0.0
2.345000 0.0 0.0
2.350000 0.0 0.0
2.355000 0.0 0.0
2.360000 0.0 0.0
2.365000 0.0 0.0
2.370000 0.0 0.0
2.375000 0.0 0.0
2.380000 0.0 0.0
2.385000 0.0 0.0
2.390000 0.0 0.0
2.395000 0.0 0.0
2.400000 0.0 0.0
2.405000 0.0 0.0
2.410000 0.0 0.0
2.415000 0.0 0.0
2.420000 0.0 0.0
2.425000 0.0 0.0
2.430000 0.0 0.0
2.435000 0.0 0.0
2.440000 0.0 0.0
2.445000 0.0 0.0
2.450000 0.0 0.0
2.455000 0.0 0.0
2.460000 0.0 0.0
2.465000 0.0 0.0
2.470000 0.0 0.0
2.475000 0.0 0.0
2.480000 0.0 0.0
2.485000 0.0 0.0
2.490000 0.0 0.0
2.495000 0.0 0.0
2.500000 0.0 0.0
2.505000 0.0 0.0
2.510000 0.0 0.0
2.515000 0.0 0.0
2.520000 0.0 0.0
2.525000 0.0 0.0
2.530000 0.0 0.0
2.535000 0.0 0.0
2.540000 0.0 0.0
2.545000 0.0 0.0
2.550000 0.0 0.0
2.555000 0.0 0.0
2.560000 0.0 0.0
2.565000 0.0 0.0
2.570000 0.0 0.0
2.575000 0.0 0.0
2.580000 0.0 0.0
2.585000 0.0 0.0
2.590000 0.0 0.0
2.595000 0.0 0.0
2.600000 0.0 0.0
2.605000 0.0 0.0
2.610000 0.0 0.0
2.615000 0.0 0.0
2.620000 0.0 0.0
2.625000 0.0 0.0
2.630000 0.0 0.0
2.635000 0.0 0.0
2.640000 0.0 0.0
2.645000 0.0 0.0
2.650000 0.0 0.0
2.655000 0.0 0.0
2.660000 0.0 0.0
2.665000 0.0 0.0
2.670000 0.0 0.0
2.675000 0.0 0.0
2.680000 0.0 0.0
2.685000 0.0 0.0
2.690000 0.0 0.0
2.695000 0.0 0.0
2.700000 0.0 0.0
2.705000 0.0 0.0
2.710000 0.0 0.0
2.715000 0.0 0.0
2.720000 0.0 0.0
2.725000 0.0 0.0
2.730000 0.0 0.0
2.735000 0.0 0.0
2.740000 0.0 0.0
2.745000 0.0 0.0
2.750000 0.0 0.0
2.755000 0.0 0.0
2.760000 0.0 0.0
2.765000 0.0 0.0
2.770000 0.0 0.0
2.775000 0.0 0.0
2.780000 0.0 0.0
2.785000 0.0 0.0
2.790000 0.0 0.0
2.795000 0.0 0.0
2.800000 0.0 0.0
2.805000 0.0 0.0
2.810000 0.0 0.0
2.815000 0.0 0.0
2.820000 0.0 0.0
2.825000 0.0 0.0
2.830000 0.0 0.0
2.835000 0.0 0.0
2.840000 0.0 0.0
2.845000 0.0 0.0
2.850000 0.0 0.0
2.855000 0.0 0.0
2.860000 0.0 0.0
[...]
      <PointData Scalars="Temperature">
        <DataArray type="Float32" Name="Temperature" format="ascii">
308.150000
306.908162
305.666757
304.426214
303.186966
301.949441
300.714066
299.481268
298.251468
297.025086
295.802538
294.584236
293.370588
292.161995
290.958855
289.761559
288.570491
287.386029
286.208541
285.038389
283.875926
282.721494
281.575425
280.438041
279.309652
278.190554
277.081033
275.981361
274.892091
273.856910
273.278410
273.035102
272.887067
272.775280
272.681470
272.597990
272.520993
272.448305
272.378598
272.311012
272.244973
272.180083
272.116064
272.052717
271.989897
271.927501
271.865454
271.803699
271.742197
271.680918
271.619842
271.558954
271.498243
271.437702
271.377327
271.317114
271.257063
271.197172
271.137442
271.077875
271.018471
270.959231
270.900159
270.841255
270.782523
270.723963
270.665579
270.607373
270.549346
270.491502
270.433843
270.376370
270.319087
270.261995
270.205096
270.148394
270.091890
270.035586
269.979485
269.923588
269.867898
269.812417
269.757147
269.702089
269.647247
269.592621
269.538214
269.484028
269.430065
269.376325
269.322812
269.269528
269.216472
269.163649
269.111058
269.058703
269.006583
268.954702
268.903061
268.851660
268.800503
268.749589
268.698921
268.648500
268.598327
268.548404
268.498732
268.449312
268.400146
268.351234
268.302579
268.254180
268.206039
268.158158
268.110537
268.063177
268.016080
267.969246
267.922676
267.876371
267.830332
267.784559
267.739054
267.693817
267.648850
267.604152
267.559724
267.515567
267.471682
267.428069
267.384728
267.341661
267.298867
267.256348
267.214102
267.172132
267.130437
267.089017
267.047873
267.007005
266.966414
266.926099
266.886060
266.846299
266.806814
266.767606
266.728675
266.690021
266.651644
266.613544
266.575721
266.538175
266.500905
266.463912
266.427195
266.390754
266.354590
266.318701
266.283087
266.247748
266.212684
266.177894
266.143378
266.109136
266.075167
266.041471
266.008046
265.974893
265.942012
265.909401
265.877059
265.844987
265.813184
265.781649
265.750381
265.719380
265.688645
265.658176
265.627970
265.598029
265.568350
265.538933
265.509778
265.480883
265.452247
265.423870
265.395751
265.367889
265.340282
265.312930
265.285832
265.258987
265.232394
265.206051
265.179959
265.154114
265.128518
265.103168
265.078064
265.053203
265.028586
265.004211
264.980077
264.956182
264.932526
264.909107
264.885924
264.862975
264.840261
264.817778
264.795527
264.773505
264.751712
264.730146
264.708806
264.687691
264.666799
264.646129
264.625679
264.605449
264.585436
264.565640
264.546059
264.526692
264.507538
264.488594
264.469860
264.451335
264.433016
264.414902
264.396993
264.379286
264.361780
264.344474
264.327366
264.310456
264.293740
264.277219
264.260890
264.244752
264.228804
264.213044
264.197471
264.182083
264.166879
264.151857
264.137016
264.122355
264.107871
264.093565
264.079433
264.065475
264.051689
264.038074
264.024628
264.011350
263.998238
263.985291
263.972507
263.959886
263.947425
263.935123
263.922979
263.910992
263.899159
263.887479
263.875951
263.864574
263.853346
263.842266
263.831332
263.820543
263.809897
263.799393
263.789030
263.778807
263.768721
263.758772
263.748958
263.739277
263.729730
263.720313
263.711026
263.701867
263.692835
263.683929
263.675148
263.666489
263.657952
263.649536
263.641239
263.633059
263.624996
263.617049
263.609215
263.601494
263.593885
263.586386
263.578995
263.571713
263.564537
263.557466
263.550500
263.543636
263.536874
263.530212
263.523650
263.517186
263.510818
263.504547
263.498370
263.492287
263.486296
263.480396
263.474587
263.468867
263.463234
263.457688
263.452229
263.446853
263.441562
263.436353
263.431225
263.426178
263.421211
263.416322
263.411510
263.406775
263.402115
263.397529
263.393017
263.388578
263.384210
263.379913
263.375685
263.371526
263.367434
263.363410
263.359451
263.355558
263.351729
263.347962
263.344259
263.340617
263.337035
263.333513
263.330051
263.326646
263.323299
263.320008
263.316773
263.313593
263.310468
263.307395
263.304375
263.301407
263.298490
263.295623
263.292806
263.290037
263.287317
263.284644
263.282018
263.279437
263.276903
263.274412
263.271966
263.269563
263.267202
263.264884
263.262607
263.260370
263.258174
263.256017
263.253899
263.251819
263.249777
263.247772
263.245803
263.243870
263.241973
263.240110
263.238281
263.236486
263.234725
263.232995
263.231298
263.229633
263.227998
263.226394
263.224820
263.223275
263.221759
263.220272
263.218813
263.217382
263.215978
263.214600
263.213249
263.211924
263.210624
263.209349
263.208098
263.206872
263.205669
263.204489
263.203333
263.202199
263.201087
263.199996
263.198927
263.197879
263.196852
263.195845
263.194857
263.193890
263.192941
263.192012
263.191100
263.190207
263.189332
263.188475
263.187634
263.186811
263.186004
263.185214
263.184439
263.183680
263.182937
263.182209
263.181496
263.180797
263.180113
263.179442
263.178786
263.178143
263.177513
263.176896
263.176293
263.175701
263.175122
263.174556
263.174001
263.173457
263.172925
263.172405
263.171895
263.171396
263.170908
263.170430
263.169962
263.169504
263.169056
263.168617
263.168188
263.167768
263.167357
263.166955
263.166562
263.166177
263.165800
263.165432
263.165072
263.164719
263.164374
263.164037
263.163707
263.163385
263.163069
263.162761
263.162459
263.162164
263.161875
263.161593
263.161317
263.161048
263.160784
263.160526
263.160274
263.160028
263.159787
263.159552
263.159322
263.159097
263.158877
263.158662
263.158452
263.158247
263.158047
263.157851
263.157660
263.157473
263.157290
263.157111
263.156937
263.156767
263.156600
263.156438
263.156279
263.156124
263.155972
263.155824
263.155680
263.155539
263.155401
263.155266
263.155135
263.155006
263.154881
263.154759
263.154639
263.154523
263.154409
263.154298
263.154189
263.154083
263.153980
263.153879
263.153781
263.153685
263.153591
263.153499
263.153410
263.153323
263.153238
263.153155
263.153074
263.152995
263.152918
263.152842
263.152769
263.152697
263.152628
263.152560
263.152493
263.152428
263.152365
263.152304
263.152243
263.152185
263.152128
263.152072
263.152018
263.151965
263.151913
263.151863
263.151814
263.151766
263.151719
263.151673
263.151629
263.151586
263.151544
263.151503
263.151463
263.151424
263.151386
263.151349
263.151312
263.151277
263.151243
263.151209
263.151177
263.151145
263.151114
263.151084
263.151055
263.151026
263.150998
263.150971
263.150945
263.150919
263.150894
263.150870
263.150846
263.150823
263.150800
263.150778
263.150757
263.150736
263.150716
263.150696
263.150677
263.150658
263.150640
263.150622
263.150605
263.150588
263.150572
263.150556
263.150541
263.150525
263.150511
263.150496
263.150483
263.150469
263.150456
263.150443
263.150431
263.150418
263.150407
263.150395
263.150384
263.150373
263.150363
263.150352
263.150342
263.150333
263.150323
263.150314
263.150305
263.150296
263.150288
263.150280
263.150272
263.150264
263.150256
263.150249
263.150242
263.150235
263.150228
263.150221
263.150215
263.150209
263.150203
263.150197
263.150191
263.150186
263.150180
263.150175
263.150170
263.150165
263.150160
263.150155
263.150151
263.150146
263.150142
263.150138
263.150134
263.150130
263.150126
263.150122
263.150119
263.150115
263.150112
263.150108
263.150105
263.150102
263.150099
263.150096
263.150093
263.150090
263.150088
263.150085
263.150083
263.150080
263.150078
263.150075
263.150073
263.150071
263.150069
263.150067
263.150065
263.150063
263.150061
263.150059
263.150057
263.150055
263.150054
263.150052
263.150051
263.150049
263.150048
263.150046
263.150045
263.150043
263.150042
263.150041
263.150039
263.150038
263.150037
263.150036
263.150035
263.150034
263.150033
263.150032
263.150031
263.150030
263.150029
263.150028
263.150027
263.150026
263.150025
263.150025
263.150024
263.150023
263.150022
263.150022
263.150021
263.150020
263.150020
263.150019
263.150018
263.150018
263.150017
263.150017
263.150016
263.150016
263.150015
263.150015
263.150014
263.150014
263.150013
263.150013
263.150013
263.150012
263.150012
263.150011
263.150011
263.150011
263.150010
263.150010
263.150010
263.150009
263.150009
263.150009
263.150008
263.150008
263.150008
263.150008
263.150007
263.150007
263.150007
263.150007
263.150006
263.150006
263.150006
263.150006
263.150006
263.150005
263.150005
263.150005
263.150005
263.150005
263.150005
263.150004
263.150004
263.150004
263.150004
263.150004
263.150004
263.150004
263.150003
263.150003
263.150003
263.150003
263.150003
263.150003
263.150003
263.150003
263.150003
263.150002
263.150002
263.150002
263.150002
263.150002
263.150002
263.150002
263.150002
263.150002
263.150002
263.150002
263.150002
263.150002
263.150001
263.150001
263.150001
263.150001
263.150001
263.150001
263.150001
263.150001
263.150001
263.150001
263.150001
263.150001
263.150001
263.150001
263.150001
263.150001
263.150000
263.150000
263.150000
263.150000
263.150000
263.150000
263.150000
263.150000
263.150000
263.150000
263.150000
        </DataArray>
      </PointData>
      <CellData>
      </CellData>
    </Piece>
  </UnstructuredGrid>
</VTKFile>
