<?xml version="1.0"?>
<VTKFile type="UnstructuredGrid" version="0.1" byte_order="LittleEndian">
  <UnstructuredGrid>
    <Piece NumberOfPoints="801" NumberOfCells="800">
      <Points>
        <DataArray type="Float32" NumberOfComponents="3" format="ascii">
0.000000 0.0 0.0
0.005000 0.0 0.0
0.010000 0.0 0.0
0.015000 0.0 0.0
0.020000 0.0 0.0
0.025000 0.0 0.0
0.030000 0.0 0.0
0.035000 0.0 0.0
0.040000 0.0 0.0
0.045000 0.0 0.0
0.050000 0.0 0.0
0.055000 0.0 0.0
0.060000 0.0 0.0
0.065000 0.0 0.0
0.070000 0.0 0.0
0.075000 0.0 0.0
0.080000 0.0 0.0
0.085000 0.0 0.0
0.090000 0.0 0.0
0.095000 0.0 0.0
0.100000 0.0 0.0
0.105000 0.0 0.0
0.110000 0.0 0.0
0.115000 0.0 0.0
0.120000 0.0 0.0
0.125000 0.0 0.0
0.130000 0.0 0.0
0.135000 0.0 0.0
0.140000 0.0 0.0
0.145000 0.0 0.0
0.150000 0.0 0.0
0.155000 0.0 0.0
0.160000 0.0 0.0
0.165000 0.0 0.0
0.170000 0.0 0.0
0.175000 0.0 0.0
0.180000 0.0 0.0
0.185000 0.0 0.0
0.190000 0.0 0.0
0.195000 0.0 0.0
0.200000 0.0 0.0
0.205000 0.0 0.0
0.210000 0.0 0.0
0.215000 0.0 0.0
0.220000 0.0 0.0
0.225000 0.0 0.0
0.230000 0.0 0.0
0.235000 0.0 0.0
0.240000 0.0 0.0
0.245000 0.0 0.0
0.250000 0.0 0.0
0.255000 0.0 0.0
0.260000 0.0 0.0
0.265000 0.0 0.0
0.270000 0.0 0.0
0.275000 0.0 0.0
0.280000 0.0 0.0
0.285000 0.0 0.0
0.290000 0.0 0.0
0.295000 0.0 0.0
0.300000 0.0 0.0
0.305000 0.0 0.0
0.310000 0.0 0.0
0.315000 0.0 0.0
0.320000 0.0 0.0
0.325000 0.0 0.0
0.330000 0.0 0.0
0.335000 0.0 0.0
0.340000 0.0 0.0
0.345000 0.0 0.0
0.350000 0.0 0.0
0.355000 0.0 0.0
0.360000 0.0 0.0
0.365000 0.0 0.0
0.370000 0.0 0.0
0.375000 0.0 0.0
0.380000 0.0 0.0
0.385000 0.0 0.0
0.390000 0.0 0.0
0.395000 0.0 0.0
0.400000 0.0 0.0
0.405000 0.0 0.0
0.410000 0.0 0.0
0.415000 0.0 0.0
0.420000 0.0 0.0
0.425000 0.0 0.0
0.430000 0.0 0.0
0.435000 0.0 0.0
0.440000 0.0 0.0
0.445000 0.0 0.0
0.450000 0.0 0.0
0.455000 0.0 0.0
0.460000 0.0 0.0
0.465000 0.0 0.0
0.470000 0.0 0.0
0.475000 0.0 0.0
0.480000 0.0 0.0
0.485000 0.0 0.0
0.490000 0.0 0.0
0.495000 0.0 0.0
0.500000 0.0 0.0
0.505000 0.0 0.0
0.510000 0.0 0.0
0.515000 0.0 0.0
0.520000 0.0 0.0
0.525000 0.0 0.0
0.530000 0.0 0.0
0.535000 0.0 0.0
0.540000 0.0 0.0
0.545000 0.0 0.0
0.550000 0.0 0.0
0.555000 0.0 0.0
0.560000 0.0 0.0
0.565000 0.0 0.0
0.570000 0.0 0.0
0.575000 0.0 0.0
0.580000 0.0 0.0
0.585000 0.0 0.0
0.590000 0.0 0.0
0.595000 0.0 0.0
0.600000 0.0 0.0
0.605000 0.0 0.0
0.610000 0.0 0.0
0.615000 0.0 0.0
0.620000 0.0 0.0
0.625000 0.0 0.0
0.630000 0.0 0.0
0.635000 0.0 0.0
0.640000 0.0 0.0
0.645000 0.0 0.0
0.650000 0.0 0.0
0.655000 0.0 0.0
0.660000 0.0 0.0
0.665000 0.0 0.0
0.670000 0.0 0.0
0.675000 0.0 0.0
0.680000 0.0 0.0
0.685000 0.0 0.0
0.690000 0.0 0.0
0.695000 0.0 0.0
0.700000 0.0 0.0
0.705000 0.0 0.0
0.710000 0.0 0.0
0.715000 0.0 0.0
0.720000 0.0 0.0
0.725000 0.0 0.0
0.730000 0.0 0.0
0.735000 0.0 0.0
0.740000 0.0 0.0
0.745000 0.0 0.0
0.750000 0.0 0.0
0.755000 0.0 0.0
0.760000 0.0 0.0
0.765000 0.0 0.0
0.770000 0.0 0.0
0.775000 0.0 0.0
0.780000 0.0 0.0
0.785000 0.0 0.0
0.790000 0.0 0.0
0.795000 0.0 0.0
0.800000 0.0 0.0
0.805000 0.0 0.0
0.810000 0.0 0.0
0.815000 0.0 0.0
0.820000 0.0 0.0
0.825000 0.0 0.0
0.830000 0.0 0.0
0.835000 0.0 0.0
0.840000 0.0 0.0
0.845000 0.0 0.0
0.850000 0.0 0.0
0.855000 0.0 0.0
0.860000 0.0 0.0
0.865000 0.0 0.0
0.870000 0.0 0.0
0.875000 0.0 0.0
0.880000 0.0 0.0
0.885000 0.0 0.0
0.890000 0.0 0.0
0.895000 0.0 0.0
0.900000 0.0 0.0
0.905000 0.0 0.0
0.910000 0.0 0.0
0.915000 0.0 0.0
0.920000 0.0 0.0
0.925000 0.0 0.0
0.930000 0.0 0.0
0.935000 0.0 0.0
0.940000 0.0 0.0
0.945000 0.0 0.0
0.950000 0.0 0.0
0.955000 0.0 0.0
0.960000 0.0 0.0
0.965000 0.0 0.0
0.970000 0.0 0.0
0.975000 0.0 0.0
0.980000 0.0 0.0
0.985000 0.0 0.0
0.990000 0.0 0.0
0.995000 0.0 0.0
1.000000 0.0 0.0
1.005000 0.0 0.0
1.010000 0.0 0.0
1.015000 0.0 0.0
1.020000 0.0 0.0
1.025000 0.0 0.0
1.030000 0.0 0.0
1.035000 0.0 0.0
1.040000 0.0 0.0
1.045000 0.0 0.0
1.050000 0.0 0.0
1.055000 0.0 0.0
1.060000 0.0 0.0
1.065000 0.0 0.0
1.070000 0.0 0.0
1.075000 0.0 0.0
1.080000 0.0 0.0
1.085000 0.0 0.0
1.090000 0.0 0.0
1.095000 0.0 0.0
1.100000 0.0 0.0
1.105000 0.0 0.0
1.110000 0.0 0.0
1.115000 0.0 0.0
1.120000 0.0 0.0
1.125000 0.0 0.0
1.130000 0.0 0.0
1.135000 0.0 0.0
1.140000 0.0 0.0
1.145000 0.0 0.0
1.150000 0.0 0.0
1.155000 0.0 0.0
1.160000 0.0 0.0
1.165000 0.0 0.0
1.170000 0.0 0.0
1.175000 0.0 0.0
1.180000 0.0 0.0
1.185000 0.0 0.0
1.190000 0.0 0.0
1.195000 0.0 0.0
1.200000 0.0 0.0
1.205000 0.0 0.0
1.210000 0.0 0.0
1.215000 0.0 0.0
1.220000 0.0 0.0
1.225000 0.0 0.0
1.230000 0.0 0.0
1.235000 0.0 0.0
1.240000 0.0 0.0
1.245000 0.0 0.0
1.250000 0.0 0.0
1.255000 0.0 0.0
1.260000 0.0 0.0
1.265000 0.0 0.0
1.270000 0.0 0.0
1.275000 0.0 0.0
1.280000 0.0 0.0
1.285000 0.0 0.0
1.290000 0.0 0.0
1.295000 0.0 0.0
1.300000 0.0 0.0
1.305000 0.0 0.0
1.310000 0.0 0.0
1.315000 0.0 0.0
1.320000 0.0 0.0
1.325000 0.0 0.0
1.330000 0.0 0.0
1.335000 0.0 0.0
1.340000 0.0 0.0
1.345000 0.0 0.0
1.350000 0.0 0.0
1.355000 0.0 0.0
1.360000 0.0 0.0
1.365000 0.0 0.0
1.370000 0.0 0.0
1.375000 0.0 0.0
1.380000 0.0 0.0
1.385000 0.0 0.0
1.390000 0.0 0.0
1.395000 0.0 0.0
1.400000 0.0 0.0
1.405000 0.0 0.0
1.410000 0.0 0.0
1.415000 0.0 0.0
1.420000 0.0 0.0
1.425000 0.0 0.0
1.430000 0.0 0.0
1.435000 0.0 0.0
1.440000 0.0 0.0
1.445000 0.0 0.0
1.450000 0.0 0.0
1.455000 0.0 0.0
1.460000 0.0 0.0
1.465000 0.0 0.0
1.470000 0.0 0.0
1.475000 0.0 0.0
1.480000 0.0 0.0
1.485000 0.0 0.0
1.490000 0.0 0.0
1.495000 0.0 0.0
1.500000 0.0 0.0
1.505000 0.0 0.0
1.510000 0.0 0.0
1.515000 0.0 0.0
1.520000 0.0 0.0
1.525000 0.0 0.0
1.530000 0.0 0.0
1.535000 0.0 0.0
1.540000 0.0 0.0
1.545000 0.0 0.0
1.550000 0.0 0.0
1.555000 0.0 0.0
1.560000 0.0 0.0
1.565000 0.0 0.0
1.570000 0.0 0.0
1.575000 0.0 0.0
1.580000 0.0 0.0
1.585000 0.0 0.0
1.590000 0.0 0.0
1.595000 0.0 0.0
1.600000 0.0 0.0
1.605000 0.0 0.0
1.610000 0.0 0.0
1.615000 0.0 0.0
1.620000 0.0 0.0
1.625000 0.0 0.0
1.630000 0.0 0.0
1.635000 0.0 0.0
1.640000 0.0 0.0
1.645000 0.0 0.0
1.650000 0.0 0.0
1.655000 0.0 0.0
1.660000 0.0 0.0
1.665000 0.0 0.0
1.670000 0.0 0.0
1.675000 0.0 0.0
1.680000 0.0 0.0
1.685000 0.0 0.0
1.690000 0.0 0.0
1.695000 0.0 0.0
1.700000 0.0 0.0
1.705000 0.0 0.0
1.710000 0.0 0.0
1.715000 0.0 0.0
1.720000 0.0 0.0
1.725000 0.0 0.0
1.730000 0.0 0.0
1.735000 0.0 0.0
1.740000 0.0 0.0
1.745000 0.0 0.0
1.750000 0.0 0.0
1.755000 0.0 0.0
1.760000 0.0 0.0
1.765000 0.0 0.0
1.770000 0.0 0.0
1.775000 0.0 0.0
1.780000 0.0 0.0
1.785000 0.0 0.0
1.790000 0.0 0.0
1.795000 0.0 0.0
1.800000 0.0 0.0
1.805000 0.0 0.0
1.810000 0.0 0.0
1.815000 0.0 0.0
1.820000 0.0 0.0
1.825000 0.0 0.0
1.830000 0.0 0.0
1.835000 0.0 0.0
1.840000 0.0 0.0
1.845000 0.0 0.0
1.850000 0.0 0.0
1.855000 0.0 0.0
1.860000 0.0 0.0
1.865000 0.0 0.0
1.870000 0.0 0.0
1.875000 0.0 0.0
1.880000 0.0 0.0
1.885000 0.0 0.0
1.890000 0.0 0.0
1.895000 0.0 0.0
1.900000 0.0 0.0
1.905000 0.0 0.0
1.910000 0.0 0.0
1.915000 0.0 0.0
1.920000 0.0 0.0
1.925000 0.0 0.0
1.930000 0.0 0.0
1.935000 0.0 0.0
1.940000 0.0 0.0
1.945000 0.0 0.0
1.950000 0.0 0.0
1.955000 0.0 0.0
1.960000 0.0 0.0
1.965000 0.0 0.0
1.970000 0.0 0.0
1.975000 0.0 0.0
1.980000 0.0 0.0
1.985000 0.0 0.0
1.990000 0.0 0.0
1.995000 0.0 0.0
2.000000 0.0 0.0
2.005000 0.0 0.0
2.010000 0.0 0.0
2.015000 0.0 0.0
2.020000 0.0 0.0
2.025000 0.0 0.0
2.030000 0.0 0.0
2.035000 0.0 0.0
2.040000 0.0 0.0
2.045000 0.0 0.0
2.050000 0.0 0.0
2.055000 0.0 0.0
2.060000 0.0 0.0
2.065000 0.0 0.0
2.070000 0.0 0.0
2.075000 0.0 0.0
2.080000 0.0 0.0
2.085000 0.0 0.0
2.090000 0.0 0.0
2.095000 0.0 0.0
2.100000 0.0 0.0
2.105000 0.0 0.0
2.110000 0.0 0.0
2.115000 0.0 0.0
2.120000 0.0 0.0
2.125000 0.0 0.0
2.130000 0.0 0.0
2.135000 0.0 0.0
2.140000 0.0 0.0
2.145000 0.0 0.0
2.150000 0.0 0.0
2.155000 0.0 0.0
2.160000 0.0 0.0
2.165000 0.0 0.0
2.170000 0.0 0.0
2.175000 0.0 0.0
2.180000 0.0 0.0
2.185000 0.0 0.0
2.190000 0.0 0.0
2.195000 0.0 0.0
2.200000 0.0 0.0
2.205000 0.0 0.0
2.210000 0.0 0.0
2.215000 0.0 0.0
2.220000 0.0 0.0
2.225000 0.0 0.0
2.230000 0.0 0.0
2.235000 0.0 0.0
2.240000 0.0 0.0
2.245000 0.0 0.0
2.250000 0.0 0.0
2.255000 0.0 0.0
2.260000 0.0 0.0
2.265000 0.0 0.0
2.270000 0.0 0.0
2.275000 0.0 0.0
2.280000 0.0 0.0
2.285000 0.0 0.0
2.290000 0.0 0.0
2.295000 0.0 0.0
2.300000 0.0 0.0
2.305000 0.0 0.0
2.310000 0.0 0.0
2.315000 0.0 0.0
2.320000 0.0 0.0
2.325000 0.0 0.0
2.330000 0.0 0.0
2.335000 0.0 0.0
2.340000 0.0 0.0
2.345000 0.0 0.0
2.350000 0.0 0.0
2.355000 0.0 0.0
2.360000 0.0 0.0
2.365000 0.0 0.0
2.370000 0.0 0.0
2.375000 0.0 0.0
2.380000 0.0 0.0
2.385000 0.0 0.0
2.390000 0.0 0.0
2.395000 0.0 0.0
2.400000 0.0 0.0
2.405000 0.0 0.0
2.410000 0.0 0.0
2.415000 0.0 0.0
2.420000 0.0 0.0
2.425000 0.0 0.0
2.430000 0.0 0.0
2.435000 0.0 0.0
2.440000 0.0 0.0
2.445000 0.0 0.0
2.450000 0.0 0.0
2.455000 0.0 0.0
2.460000 0.0 0.0
2.465000 0.0 0.0
2.470000 0.0 0.0
2.475000 0.0 0.0
2.480000 0.0 0.0
2.485000 0.0 0.0
2.490000 0.0 0.0
2.495000 0.0 0.0
2.500000 0.0 0.0
2.505000 0.0 0.0
2.510000 0.0 0.0
2.515000 0.0 0.0
2.520000 0.0 0.0
2.525000 0.0 0.0
2.530000 0.0 0.0
2.535000 0.0 0.0
2.540000 0.0 0.0
2.545000 0.0 0.0
2.550000 0.0 0.0
2.555000 0.0 0.0
2.560000 0.0 0.0
2.565000 0.0 0.0
2.570000 0.0 0.0
2.575000 0.0 0.0
2.580000 0.0 0.0
2.585000 0.0 0.0
2.590000 0.0 0.0
2.595000 0.0 0.0
2.600000 0.0 0.0
2.605000 0.0 0.0
2.610000 0.0 0.0
2.615000 0.0 0.0
2.620000 0.0 0.0
2.625000 0.0 0.0
2.630000 0.0 0.0
2.635000 0.0 0.0
2.640000 0.0 0.0
2.645000 0.0 0.0
2.650000 0.0 0.0
2.655000 0.0 0.0
2.660000 0.0 0.0
2.665000 0.0 0.0
2.670000 0.0 0.0
2.675000 0.0 0.0
2.680000 0.0 0.0
2.685000 0.0 0.0
2.690000 0.0 0.0
2.695000 0.0 0.0
2.700000 0.0 0.0
2.705000 0.0 0.0
2.710000 0.0 0.0
2.715000 0.0 0.0
2.720000 0.0 0.0
2.725000 0.0 0.0
2.730000 0.0 0.0
2.735000 0.0 0.0
2.740000 0.0 0.0
2.745000 0.0 0.0
2.750000 0.0 0.0
2.755000 0.0 0.0
2.760000 0.0 0.0
2.765000 0.0 0.0
2.770000 0.0 0.0
2.775000 0.0 0.0
2.780000 0.0 0.0
2.785000 0.0 0.0
2.790000 0.0 0.0
2.795000 0.0 0.0
2.800000 0.0 0.0
2.805000 0.0 0.0
2.810000 0.0 0.0
2.815000 0.0 0.0
2.820000 0.0 0.0
2.825000 0.0 0.0
2.830000 0.0 0.0
2.835000 0.0 0.0
2.840000 0.0 0.0
2.845000 0.0 0.0
2.850000 0.0 0.0
2.855000 0.0 0.0
2.860000 0.0 0.0
[...]
      <PointData Scalars="Temperature">
        <DataArray type="Float32" Name="Temperature" format="ascii">
308.150000
307.044849
305.940005
304.835777
303.732471
302.630394
301.529851
300.431146
299.334582
298.240459
297.149078
296.060735
294.975724
293.894337
292.816864
291.743592
290.674803
289.610777
288.551790
287.498116
286.450023
285.407775
284.371634
283.341855
282.318689
281.302384
280.293178
279.291308
278.297002
277.310481
276.331958
275.361661
274.402627
273.579907
273.193489
273.003797
272.877367
272.778513
272.694432
272.619281
272.549953
272.484622
272.422136
272.361728
272.302873
272.245197
272.188431
272.132376
272.076887
272.021852
271.967188
271.912834
271.858742
271.804874
271.751205
271.697714
271.644384
271.591204
271.538165
271.485262
271.432490
271.379845
271.327327
271.274932
271.222662
271.170515
271.118493
271.066596
271.014825
270.963181
270.911665
270.860278
270.809021
270.757897
270.706907
270.656051
270.605332
270.554751
270.504309
270.454009
270.403850
270.353836
270.303968
270.254246
270.204672
270.155249
270.105977
270.056857
270.007892
269.959082
269.910429
269.861934
269.813599
269.765425
269.717413
269.669565
269.621881
269.574364
269.527014
269.479833
269.432821
269.385980
269.339312
269.292817
269.246497
269.200352
269.154383
269.108593
269.062982
269.017550
268.972300
268.927231
268.882346
268.837644
268.793128
268.748797
268.704653
268.660697
268.616930
268.573352
268.529965
268.486768
268.443764
268.400953
268.358335
268.315912
268.273683
268.231651
268.189815
268.148176
268.106736
268.065493
268.024450
267.983607
267.942964
267.902523
267.862282
267.822244
267.782409
267.742776
267.703347
267.664123
267.625103
267.586287
267.547677
267.509273
267.471075
267.433084
267.395299
267.357722
267.320352
267.283189
267.246235
267.209489
267.172952
267.136623
267.100504
267.064593
267.028892
266.993400
266.958117
266.923045
266.888182
266.853529
266.819086
266.784853
266.750830
266.717016
266.683413
266.650020
266.616837
266.583864
266.551100
266.518547
266.486203
266.454068
266.422143
266.390428
266.358921
266.327623
266.296534
266.265654
266.234982
266.204518
266.174262
266.144213
266.114372
266.084737
266.055310
266.026089
265.997073
265.968264
265.939660
265.911261
265.883066
265.855076
265.827289
265.799706
265.772325
265.745147
265.718171
265.691397
265.664823
265.638450
265.612277
265.586304
265.560530
265.534954
265.509575
265.484394
265.459410
265.434622
265.410030
265.385632
265.361429
265.337419
265.313602
265.289978
265.266545
265.243304
265.220253
265.197391
265.174719
265.152234
265.129938
265.107828
265.085904
265.064166
265.042612
265.021242
265.000056
264.979051
264.958228
264.937586
264.917124
264.896842
264.876737
264.856810
264.837060
264.817486
264.798087
264.778862
264.759811
264.740932
264.722225
264.703689
264.685322
264.667125
264.649096
264.631235
264.613540
264.596011
264.578646
264.561445
264.544407
264.527531
264.510817
264.494262
264.477867
264.461630
264.445550
264.429627
264.413859
264.398247
264.382788
264.367481
264.352327
264.337323
264.322470
264.307765
264.293208
264.278799
264.264536
264.250418
264.236444
264.222613
264.208925
264.195378
264.181972
264.168705
264.155577
264.142586
264.129732
264.117013
264.104430
264.091980
264.079662
264.067477
264.055422
264.043497
264.031701
264.020033
264.008492
263.997078
263.985788
263.974622
263.963580
263.952660
263.941861
263.931182
263.920623
263.910183
263.899859
263.889653
263.879562
263.869586
263.859723
263.849973
263.840335
263.830809
263.821392
263.812084
263.802884
263.793792
263.784806
263.775925
263.767149
263.758477
263.749907
263.741439
263.733072
263.724805
263.716637
263.708567
263.700594
263.692718
263.684938
263.677252
263.669660
263.662161
263.654754
263.647439
263.640213
263.633077
263.626030
263.619071
263.612198
263.605412
263.598711
263.592095
263.585562
263.579112
263.572744
263.566457
263.560251
263.554124
263.548076
263.542106
263.536213
263.530397
263.524656
263.518990
263.513398
263.507879
263.502433
263.497059
263.491756
263.486523
263.481360
263.476265
263.471239
263.466280
263.461387
263.456561
263.451800
263.447103
263.442470
263.437900
263.433392
263.428946
263.424561
263.420236
263.415971
263.411765
263.407618
263.403528
263.399495
263.395518
263.391597
263.387731
263.383919
263.380161
263.376457
263.372805
263.369205
263.365656
263.362158
263.358710
263.355311
263.351962
263.348661
263.345407
263.342201
263.339041
263.335927
263.332859
263.329836
263.326857
263.323922
263.321030
263.318181
263.315375
263.312610
263.309886
263.307202
263.304559
263.301956
263.299391
263.296866
263.294378
263.291928
263.289515
263.287139
263.284799
263.282495
263.280226
263.277992
263.275792
263.273627
263.271494
263.269395
263.267328
263.265293
263.263291
263.261319
263.259378
263.257468
263.255588
263.253737
263.251915
263.250123
263.248359
263.246623
263.244914
263.243233
263.241579
263.239951
263.238349
263.236774
263.235223
263.233698
263.232197
263.230721
263.229269
263.227841
263.226435
263.225053
263.223694
263.222357
263.221042
263.219748
263.218476
263.217226
263.215996
263.214786
263.213597
263.212427
263.211277
263.210147
263.209035
263.207942
263.206868
263.205812
263.204773
263.203753
263.202750
263.201763
263.200794
263.199841
263.198905
263.197985
263.197080
263.196192
263.195318
263.194460
263.193617
263.192788
263.191974
263.191174
263.190388
263.189615
263.188857
263.188111
263.187379
263.186660
263.185953
263.185259
263.184578
263.183908
263.183250
263.182605
263.181970
263.181347
263.180736
263.180135
263.179545
263.178966
263.178397
263.177839
263.177290
263.176752
263.176224
263.175705
263.175195
263.174695
263.174204
263.173723
263.173250
263.172785
263.172330
263.171883
263.171444
263.171013
263.170590
263.170176
263.169769
263.169369
263.168977
263.168593
263.168215
263.167845
263.167482
263.167125
263.166776
263.166433
263.166096
263.165766
263.165443
263.165125
263.164814
263.164508
263.164209
263.163915
263.163626
263.163344
263.163067
263.162795
263.162528
263.162267
263.162011
263.161760
263.161513
263.161272
263.161035
263.160803
263.160575
263.160352
263.160133
263.159919
263.159709
263.159503
263.159301
263.159103
263.158909
263.158719
263.158533
263.158351
263.158172
263.157996
263.157825
263.157656
263.157492
263.157330
263.157172
263.157017
263.156865
263.156716
263.156570
263.156427
263.156287
263.156150
263.156016
263.155885
263.155756
263.155630
263.155506
263.155385
263.155267
263.155151
263.155037
263.154926
263.154817
263.154710
263.154606
263.154503
263.154403
263.154305
263.154209
263.154115
263.154023
263.153933
263.153845
263.153759
263.153675
263.153592
263.153511
263.153432
263.153354
263.153279
263.153204
263.153132
263.153061
263.152991
263.152923
263.152856
263.152791
263.152728
263.152665
263.152604
263.152545
263.152486
263.152429
263.152373
263.152318
263.152265
263.152213
263.152162
263.152112
263.152063
263.152015
263.151968
263.151922
263.151877
263.151834
263.151791
263.151749
263.151708
263.151668
263.151629
263.151591
263.151553
263.151517
263.151481
263.151446
263.151412
263.151378
263.151346
263.151314
263.151283
263.151252
263.151222
263.151193
263.151165
263.151137
263.151110
263.151083
263.151057
263.151032
263.151007
263.150983
263.150959
263.150936
263.150913
263.150891
263.150870
263.150849
263.150828
263.150808
263.150788
263.150769
263.150750
263.150732
263.150714
263.150697
263.150680
263.150663
263.150647
263.150631
263.150615
263.150600
263.150585
263.150571
263.150557
263.150543
263.150530
263.150516
263.150504
263.150491
263.150479
263.150467
263.150455
263.150444
263.150433
263.150422
263.150411
263.150401
263.150391
263.150381
263.150372
263.150362
263.150353
263.150344
263.150335
263.150327
263.150319
263.150310
263.150303
263.150295
263.150287
263.150280
263.150273
263.150266
263.150259
263.150252
263.150246
263.150239
263.150233
263.150227
263.150221
263.150216
263.150210
263.150204
263.150199
263.150194
263.150189
263.150184
263.150179
263.150174
263.150170
263.150165
263.150161
263.150157
263.150152
263.150148
263.150144
263.150140
263.150137
263.150133
263.150129
263.150126
263.150122
263.150119
263.150116
263.150113
263.150110
263.150106
263.150104
263.150101
263.150098
263.150095
263.150092
263.150090
263.150087
263.150085
263.150082
263.150080
263.150077
263.150075
263.150073
263.150071
263.150069
263.150067
263.150065
263.150063
263.150061
263.150059
263.150057
263.150055
263.150053
263.150052
263.150050
263.150048
263.150046
263.150045
263.150043
263.150042
263.150040
263.150039
263.150037
263.150036
263.150034
263.150033
263.150032
263.150030
263.150029
263.150028
263.150027
263.150025
263.150024
263.150023
263.150022
263.150021
263.150019
263.150018
263.150017
263.150016
263.150015
263.150014
263.150013
263.150012
263.150010
263.150009
263.150008
263.150007
263.150006
263.150005
263.150004
263.150003
263.150002
263.150001
263.150000
        </DataArray>
      </PointData>
      <CellData>
      </CellData>
    </Piece>
  </UnstructuredGrid>
</VTKFile>
