<?xml version="1.0"?>
<VTKFile type="UnstructuredGrid" version="0.1" byte_order="LittleEndian">
  <UnstructuredGrid>
    <Piece NumberOfPoints="801" NumberOfCells="800">
      <Points>
        <DataArray type="Float32" NumberOfComponents="3" format="ascii">
0.000000 0.0 0.0
0.005000 0.0 0.0
0.010000 0.0 0.0
0.015000 0.0 0.0
0.020000 0.0 0.0
0.025000 0.0 0.0
0.030000 0.0 0.0
0.035000 0.0 0.0
0.040000 0.0 0.0
0.045000 0.0 0.0
0.050000 0.0 0.0
0.055000 0.0 0.0
0.060000 0.0 0.0
0.065000 0.0 0.0
0.070000 0.0 0.0
0.075000 0.0 0.0
0.080000 0.0 0.0
0.085000 0.0 0.0
0.090000 0.0 0.0
0.095000 0.0 0.0
0.100000 0.0 0.0
0.105000 0.0 0.0
0.110000 0.0 0.0
0.115000 0.0 0.0
0.120000 0.0 0.0
0.125000 0.0 0.0
0.130000 0.0 0.0
0.135000 0.0 0.0
0.140000 0.0 0.0
0.145000 0.0 0.0
0.150000 0.0 0.0
0.155000 0.0 0.0
0.160000 0.0 0.0
0.165000 0.0 0.0
0.170000 0.0 0.0
0.175000 0.0 0.0
0.180000 0.0 0.0
0.185000 0.0 0.0
0.190000 0.0 0.0
0.195000 0.0 0.0
0.200000 0.0 0.0
0.205000 0.0 0.0
0.210000 0.0 0.0
0.215000 0.0 0.0
0.220000 0.0 0.0
0.225000 0.0 0.0
0.230000 0.0 0.0
0.235000 0.0 0.0
0.240000 0.0 0.0
0.245000 0.0 0.0
0.250000 0.0 0.0
0.255000 0.0 0.0
0.260000 0.0 0.0
0.265000 0.0 0.0
0.270000 0.0 0.0
0.275000 0.0 0.0
0.280000 0.0 0.0
0.285000 0.0 0.0
0.290000 0.0 0.0
0.295000 0.0 0.0
0.300000 0.0 0.0
0.305000 0.0 0.0
0.310000 0.0 0.0
0.315000 0.0 0.0
0.320000 0.0 0.0
0.325000 0.0 0.0
0.330000 0.0 0.0
0.335000 0.0 0.0
0.340000 0.0 0.0
0.345000 0.0 0.0
0.350000 0.0 0.0
0.355000 0.0 0.0
0.360000 0.0 0.0
0.365000 0.0 0.0
0.370000 0.0 0.0
0.375000 0.0 0.0
0.380000 0.0 0.0
0.385000 0.0 0.0
0.390000 0.0 0.0
0.395000 0.0 0.0
0.400000 0.0 0.0
0.405000 0.0 0.0
0.410000 0.0 0.0
0.415000 0.0 0.0
0.420000 0.0 0.0
0.425000 0.0 0.0
0.430000 0.0 0.0
0.435000 0.0 0.0
0.440000 0.0 0.0
0.445000 0.0 0.0
0.450000 0.0 0.0
0.455000 0.0 0.0
0.460000 0.0 0.0
0.465000 0.0 0.0
0.470000 0.0 0.0
0.475000 0.0 0.0
0.480000 0.0 0.0
0.485000 0.0 0.0
0.490000 0.0 0.0
0.495000 0.0 0.0
0.500000 0.0 0.0
0.505000 0.0 0.0
0.510000 0.0 0.0
0.515000 0.0 0.0
0.520000 0.0 0.0
0.525000 0.0 0.0
0.530000 0.0 0.0
0.535000 0.0 0.0
0.540000 0.0 0.0
0.545000 0.0 0.0
0.550000 0.0 0.0
0.555000 0.0 0.0
0.560000 0.0 0.0
0.565000 0.0 0.0
0.570000 0.0 0.0
0.575000 0.0 0.0
0.580000 0.0 0.0
0.585000 0.0 0.0
0.590000 0.0 0.0
0.595000 0.0 0.0
0.600000 0.0 0.0
0.605000 0.0 0.0
0.610000 0.0 0.0
0.615000 0.0 0.0
0.620000 0.0 0.0
0.625000 0.0 0.0
0.630000 0.0 0.0
0.635000 0.0 0.0
0.640000 0.0 0.0
0.645000 0.0 0.0
0.650000 0.0 0.0
0.655000 0.0 0.0
0.660000 0.0 0.0
0.665000 0.0 0.0
0.670000 0.0 0.0
0.675000 0.0 0.0
0.680000 0.0 0.0
0.685000 0.0 0.0
0.690000 0.0 0.0
0.695000 0.0 0.0
0.700000 0.0 0.0
0.705000 0.0 0.0
0.710000 0.0 0.0
0.715000 0.0 0.0
0.720000 0.0 0.0
0.725000 0.0 0.0
0.730000 0.0 0.0
0.735000 0.0 0.0
0.740000 0.0 0.0
0.745000 0.0 0.0
0.750000 0.0 0.0
0.755000 0.0 0.0
0.760000 0.0 0.0
0.765000 0.0 0.0
0.770000 0.0 0.0
0.775000 0.0 0.0
0.780000 0.0 0.0
0.785000 0.0 0.0
0.790000 0.0 0.0
0.795000 0.0 0.0
0.800000 0.0 0.0
0.805000 0.0 0.0
0.810000 0.0 0.0
0.815000 0.0 0.0
0.820000 0.0 0.0
0.825000 0.0 0.0
0.830000 0.0 0.0
0.835000 0.0 0.0
0.840000 0.0 0.0
0.845000 0.0 0.0
0.850000 0.0 0.0
0.855000 0.0 0.0
0.860000 0.0 0.0
0.865000 0.0 0.0
0.870000 0.0 0.0
0.875000 0.0 0.0
0.880000 0.0 0.0
0.885000 0.0 0.0
0.890000 0.0 0.0
0.895000 0.0 0.0
0.900000 0.0 0.0
0.905000 0.0 0.0
0.910000 0.0 0.0
0.915000 0.0 0.0
0.920000 0.0 0.0
0.925000 0.0 0.0
0.930000 0.0 0.0
0.935000 0.0 0.0
0.940000 0.0 0.0
0.945000 0.0 0.0
0.950000 0.0 0.0
0.955000 0.0 0.0
0.960000 0.0 0.0
0.965000 0.0 0.0
0.970000 0.0 0.0
0.975000 0.0 0.0
0.980000 0.0 0.0
0.985000 0.0 0.0
0.990000 0.0 0.0
0.995000 0.0 0.0
1.000000 0.0 0.0
1.005000 0.0 0.0
1.010000 0.0 0.0
1.015000 0.0 0.0
1.020000 0.0 0.0
1.025000 0.0 0.0
1.030000 0.0 0.0
1.035000 0.0 0.0
1.040000 0.0 0.0
1.045000 0.0 0.0
1.050000 0.0 0.0
1.055000 0.0 0.0
1.060000 0.0 0.0
1.065000 0.0 0.0
1.070000 0.0 0.0
1.075000 0.0 0.0
1.080000 0.0 0.0
1.085000 0.0 0.0
1.090000 0.0 0.0
1.095000 0.0 0.0
1.100000 0.0 0.0
1.105000 0.0 0.0
1.110000 0.0 0.0
1.115000 0.0 0.0
1.120000 0.0 0.0
1.125000 0.0 0.0
1.130000 0.0 0.0
1.135000 0.0 0.0
1.140000 0.0 0.0
1.145000 0.0 0.0
1.150000 0.0 0.0
1.155000 0.0 0.0
1.160000 0.0 0.0
1.165000 0.0 0.0
1.170000 0.0 0.0
1.175000 0.0 0.0
1.180000 0.0 0.0
1.185000 0.0 0.0
1.190000 0.0 0.0
1.195000 0.0 0.0
1.200000 0.0 0.0
1.205000 0.0 0.0
1.210000 0.0 0.0
1.215000 0.0 0.0
1.220000 0.0 0.0
1.225000 0.0 0.0
1.230000 0.0 0.0
1.235000 0.0 0.0
1.240000 0.0 0.0
1.245000 0.0 0.0
1.250000 0.0 0.0
1.255000 0.0 0.0
1.260000 0.0 0.0
1.265000 0.0 0.0
1.270000 0.0 0.0
1.275000 0.0 0.0
1.280000 0.0 0.0
1.285000 0.0 0.0
1.290000 0.0 0.0
1.295000 0.0 0.0
1.300000 0.0 0.0
1.305000 0.0 0.0
1.310000 0.0 0.0
1.315000 0.0 0.0
1.320000 0.0 0.0
1.325000 0.0 0.0
1.330000 0.0 0.0
1.335000 0.0 0.0
1.340000 0.0 0.0
1.345000 0.0 0.0
1.350000 0.0 0.0
1.355000 0.0 0.0
1.360000 0.0 0.0
1.365000 0.0 0.0
1.370000 0.0 0.0
1.375000 0.0 0.0
1.380000 0.0 0.0
1.385000 0.0 0.0
1.390000 0.0 0.0
1.395000 0.0 0.0
1.400000 0.0 0.0
1.405000 0.0 0.0
1.410000 0.0 0.0
1.415000 0.0 0.0
1.420000 0.0 0.0
1.425000 0.0 0.0
1.430000 0.0 0.0
1.435000 0.0 0.0
1.440000 0.0 0.0
1.445000 0.0 0.0
1.450000 0.0 0.0
1.455000 0.0 0.0
1.460000 0.0 0.0
1.465000 0.0 0.0
1.470000 0.0 0.0
1.475000 0.0 0.0
1.480000 0.0 0.0
1.485000 0.0 0.0
1.490000 0.0 0.0
1.495000 0.0 0.0
1.500000 0.0 0.0
1.505000 0.0 0.0
1.510000 0.0 0.0
1.515000 0.0 0.0
1.520000 0.0 0.0
1.525000 0.0 0.0
1.530000 0.0 0.0
1.535000 0.0 0.0
1.540000 0.0 0.0
1.545000 0.0 0.0
1.550000 0.0 0.0
1.555000 0.0 0.0
1.560000 0.0 0.0
1.565000 0.0 0.0
1.570000 0.0 0.0
1.575000 0.0 0.0
1.580000 0.0 0.0
1.585000 0.0 0.0
1.590000 0.0 0.0
1.595000 0.0 0.0
1.600000 0.0 0.0
1.605000 0.0 0.0
1.610000 0.0 0.0
1.615000 0.0 0.0
1.620000 0.0 0.0
1.625000 0.0 0.0
1.630000 0.0 0.0
1.635000 0.0 0.0
1.640000 0.0 0.0
1.645000 0.0 0.0
1.650000 0.0 0.0
1.655000 0.0 0.0
1.660000 0.0 0.0
1.665000 0.0 0.0
1.670000 0.0 0.0
1.675000 0.0 0.0
1.680000 0.0 0.0
1.685000 0.0 0.0
1.690000 0.0 0.0
1.695000 0.0 0.0
1.700000 0.0 0.0
1.705000 0.0 0.0
1.710000 0.0 0.0
1.715000 0.0 0.0
1.720000 0.0 0.0
1.725000 0.0 0.0
1.730000 0.0 0.0
1.735000 0.0 0.0
1.740000 0.0 0.0
1.745000 0.0 0.0
1.750000 0.0 0.0
1.755000 0.0 0.0
1.760000 0.0 0.0
1.765000 0.0 0.0
1.770000 0.0 0.0
1.775000 0.0 0.0
1.780000 0.0 0.0
1.785000 0.0 0.0
1.790000 0.0 0.0
1.795000 0.0 0.0
1.800000 0.0 0.0
1.805000 0.0 0.0
1.810000 0.0 0.0
1.815000 0.0 0.0
1.820000 0.0 0.0
1.825000 0.0 0.0
1.830000 0.0 0.0
1.835000 0.0 0.0
1.840000 0.0 0.0
1.845000 0.0 0.0
1.850000 0.0 0.0
1.855000 0.0 0.0
1.860000 0.0 0.0
1.865000 0.0 0.0
1.870000 0.0 0.0
1.875000 0.0 0.0
1.880000 0.0 0.0
1.885000 0.0 0.0
1.890000 0.0 0.0
1.895000 0.0 0.0
1.900000 0.0 0.0
1.905000 0.0 0.0
1.910000 0.0 0.0
1.915000 0.0 0.0
1.920000 0.0 0.0
1.925000 0.0 0.0
1.930000 0.0 0.0
1.935000 0.0 0.0
1.940000 0.0 0.0
1.945000 0.0 0.0
1.950000 0.0 0.0
1.955000 0.0 0.0
1.960000 0.0 0.0
1.965000 0.0 0.0
1.970000 0.0 0.0
1.975000 0.0 0.0
1.980000 0.0 0.0
1.985000 0.0 0.0
1.990000 0.0 0.0
1.995000 0.0 0.0
2.000000 0.0 0.0
2.005000 0.0 0.0
2.010000 0.0 0.0
2.015000 0.0 0.0
2.020000 0.0 0.0
2.025000 0.0 0.0
2.030000 0.0 0.0
2.035000 0.0 0.0
2.040000 0.0 0.0
2.045000 0.0 0.0
2.050000 0.0 0.0
2.055000 0.0 0.0
2.060000 0.0 0.0
2.065000 0.0 0.0
2.070000 0.0 0.0
2.075000 0.0 0.0
2.080000 0.0 0.0
2.085000 0.0 0.0
2.090000 0.0 0.0
2.095000 0.0 0.0
2.100000 0.0 0.0
2.105000 0.0 0.0
2.110000 0.0 0.0
2.115000 0.0 0.0
2.120000 0.0 0.0
2.125000 0.0 0.0
2.130000 0.0 0.0
2.135000 0.0 0.0
2.140000 0.0 0.0
2.145000 0.0 0.0
2.150000 0.0 0.0
2.155000 0.0 0.0
2.160000 0.0 0.0
2.165000 0.0 0.0
2.170000 0.0 0.0
2.175000 0.0 0.0
2.180000 0.0 0.0
2.185000 0.0 0.0
2.190000 0.0 0.0
2.195000 0.0 0.0
2.200000 0.0 0.0
2.205000 0.0 0.0
2.210000 0.0 0.0
2.215000 0.0 0.0
2.220000 0.0 0.0
2.225000 0.0 0.0
2.230000 0.0 0.0
2.235000 0.0 0.0
2.240000 0.0 0.0
2.245000 0.0 0.0
2.250000 0.0 0.0
2.255000 0.0 0.0
2.260000 0.0 0.0
2.265000 0.0 0.0
2.270000 0.0 0.0
2.275000 0.0 0.0
2.280000 0.0 0.0
2.285000 0.0 0.0
2.290000 0.0 0.0
2.295000 0.0 0.0
2.300000 0.0 0.0
2.305000 0.0 0.0
2.310000 0.0 0.0
2.315000 0.0 0.0
2.320000 0.0 0.0
2.325000 0.0 0.0
2.330000 0.0 0.0
2.335000 0.0 0.0
2.340000 0.0 0.0
2.345000 0.0 0.0
2.350000 0.0 0.0
2.355000 0.0 0.0
2.360000 0.0 0.0
2.365000 0.0 0.0
2.370000 0.0 0.0
2.375000 0.0 0.0
2.380000 0.0 0.0
2.385000 0.0 0.0
2.390000 0.0 0.0
2.395000 0.0 0.0
2.400000 0.0 0.0
2.405000 0.0 0.0
2.410000 0.0 0.0
2.415000 0.0 0.0
2.420000 0.0 0.0
2.425000 0.0 0.0
2.430000 0.0 0.0
2.435000 0.0 0.0
2.440000 0.0 0.0
2.445000 0.0 0.0
2.450000 0.0 0.0
2.455000 0.0 0.0
2.460000 0.0 0.0
2.465000 0.0 0.0
2.470000 0.0 0.0
2.475000 0.0 0.0
2.480000 0.0 0.0
2.485000 0.0 0.0
2.490000 0.0 0.0
2.495000 0.0 0.0
2.500000 0.0 0.0
2.505000 0.0 0.0
2.510000 0.0 0.0
2.515000 0.0 0.0
2.520000 0.0 0.0
2.525000 0.0 0.0
2.530000 0.0 0.0
2.535000 0.0 0.0
2.540000 0.0 0.0
2.545000 0.0 0.0
2.550000 0.0 0.0
2.555000 0.0 0.0
2.560000 0.0 0.0
2.565000 0.0 0.0
2.570000 0.0 0.0
2.575000 0.0 0.0
2.580000 0.0 0.0
2.585000 0.0 0.0
2.590000 0.0 0.0
2.595000 0.0 0.0
2.600000 0.0 0.0
2.605000 0.0 0.0
2.610000 0.0 0.0
2.615000 0.0 0.0
2.620000 0.0 0.0
2.625000 0.0 0.0
2.630000 0.0 0.0
2.635000 0.0 0.0
2.640000 0.0 0.0
2.645000 0.0 0.0
2.650000 0.0 0.0
2.655000 0.0 0.0
2.660000 0.0 0.0
2.665000 0.0 0.0
2.670000 0.0 0.0
2.675000 0.0 0.0
2.680000 0.0 0.0
2.685000 0.0 0.0
2.690000 0.0 0.0
2.695000 0.0 0.0
2.700000 0.0 0.0
2.705000 0.0 0.0
2.710000 0.0 0.0
2.715000 0.0 0.0
2.720000 0.0 0.0
2.725000 0.0 0.0
2.730000 0.0 0.0
2.735000 0.0 0.0
2.740000 0.0 0.0
2.745000 0.0 0.0
2.750000 0.0 0.0
2.755000 0.0 0.0
2.760000 0.0 0.0
2.765000 0.0 0.0
2.770000 0.0 0.0
2.775000 0.0 0.0
2.780000 0.0 0.0
2.785000 0.0 0.0
2.790000 0.0 0.0
2.795000 0.0 0.0
2.800000 0.0 0.0
2.805000 0.0 0.0
2.810000 0.0 0.0
2.815000 0.0 0.0
2.820000 0.0 0.0
2.825000 0.0 0.0
2.830000 0.0 0.0
2.835000 0.0 0.0
2.840000 0.0 0.0
2.845000 0.0 0.0
2.850000 0.0 0.0
2.855000 0.0 0.0
2.860000 0.0 0.0
[...]
      <PointData Scalars="Temperature">
        <DataArray type="Float32" Name="Temperature" format="ascii">
308.150000
307.145429
306.141091
305.137219
304.134045
303.131801
302.130718
301.131027
300.132958
299.136739
298.142598
297.150759
296.161449
295.174888
294.191298
293.210898
292.233903
291.260528
290.290985
289.325483
288.364227
287.407421
286.455263
285.507952
284.565679
283.628633
282.697000
281.770959
280.850688
279.936357
279.028133
278.126178
277.230647
276.341693
275.459472
274.585109
273.769024
273.294681
273.074212
272.937835
272.835864
272.751616
272.677858
272.610870
272.548514
272.489457
272.432822
272.378007
272.324582
272.272237
272.220742
272.169923
272.119648
272.069817
272.020351
271.971191
271.922288
271.873607
271.825119
271.776801
271.728636
271.680611
271.632716
271.584941
271.537282
271.489733
271.442291
271.394954
271.347720
271.300588
271.253557
271.206627
271.159797
271.113070
271.066443
271.019920
270.973499
270.927182
270.880971
270.834864
270.788865
270.742973
270.697190
270.651517
270.605955
270.560505
270.515168
270.469945
270.424837
270.379846
270.334972
270.290216
270.245580
270.201064
270.156670
270.112399
270.068251
270.024227
269.980330
269.936559
269.892915
269.849400
269.806015
269.762760
269.719636
269.676645
269.633788
269.591064
269.548476
269.506023
269.463707
269.421529
269.379490
269.337590
269.295830
269.254212
269.212735
269.171401
269.130211
269.089164
269.048263
269.007507
268.966898
268.926436
268.886122
268.845957
268.805941
268.766075
268.726360
268.686796
268.647384
268.608124
268.569018
268.530066
268.491268
268.452625
268.414138
268.375807
268.337633
268.299616
268.261756
268.224055
268.186513
268.149130
268.111907
268.074844
268.037941
268.001200
267.964621
267.928203
267.891948
267.855855
267.819926
267.784160
267.748558
267.713120
267.677847
267.642739
267.607795
267.573018
267.538406
267.503960
267.469681
267.435568
267.401622
267.367843
267.334231
267.300787
267.267510
267.234402
267.201461
267.168688
267.136084
267.103649
267.071382
267.039283
267.007354
266.975593
266.944002
266.912579
266.881326
266.850242
266.819327
266.788581
266.758005
266.727598
266.697360
266.667292
266.637393
266.607663
266.578102
266.548710
266.519488
266.490434
266.461550
266.432834
266.404287
266.375908
266.347698
266.319656
266.291783
266.264077
266.236540
266.209170
266.181967
266.154932
266.128064
266.101363
266.074829
266.048461
266.022259
265.996224
265.970354
265.944649
265.919110
265.893736
265.868526
265.843481
265.818600
265.793882
265.769328
265.744937
265.720709
265.696643
265.672739
265.648997
265.625417
265.601997
265.578737
265.555638
265.532699
265.509919
265.487298
265.464836
265.442531
265.420385
265.398395
265.376562
265.354886
265.333366
265.312001
265.290791
265.269735
265.248834
265.228086
265.207491
265.187049
265.166758
265.146619
265.126631
265.106794
265.087106
265.067568
265.048179
265.028937
265.009844
264.990898
264.972099
264.953445
264.934938
264.916575
264.898356
264.880281
264.862350
264.844561
264.826914
264.809409
264.792044
264.774819
264.757735
264.740789
264.723981
264.707311
264.690779
264.674383
264.658122
264.641997
264.626007
264.610150
264.594427
264.578837
264.563378
264.548051
264.532855
264.517789
264.502852
264.488044
264.473364
264.458811
264.444385
264.430085
264.415911
264.401861
264.387936
264.374134
264.360454
264.346897
264.333461
264.320146
264.306950
264.293874
264.280917
264.268077
264.255355
264.242749
264.230260
264.217885
264.205625
264.193479
264.181445
264.169525
264.157716
264.146018
264.134430
264.122952
264.111583
264.100322
264.089169
264.078122
264.067182
264.056348
264.045618
264.034992
264.024470
264.014050
264.003733
263.993516
263.983401
263.973385
263.963469
263.953651
263.943931
263.934308
263.924782
263.915352
263.906017
263.896776
263.887629
263.878576
263.869614
263.860745
263.851966
263.843278
263.834680
263.826171
263.817750
263.809417
263.801171
263.793012
263.784938
263.776949
263.769045
263.761224
263.753486
263.745831
263.738258
263.730766
263.723355
263.716023
263.708770
263.701596
263.694500
263.687482
263.680540
263.673674
263.666883
263.660167
263.653526
263.646957
263.640462
263.634039
263.627688
263.621408
263.615198
263.609058
263.602987
263.596985
263.591051
263.585185
263.579385
263.573652
263.567984
263.562381
263.556843
263.551369
263.545958
263.540610
263.535324
263.530099
263.524936
263.519833
263.514790
263.509807
263.504882
263.500016
263.495207
263.490456
263.485761
263.481123
263.476540
263.472012
263.467538
263.463119
263.458752
263.454439
263.450179
263.445970
263.441813
263.437706
263.433650
263.429644
263.425687
263.421779
263.417920
263.414109
263.410345
263.406627
263.402957
263.399332
263.395753
263.392219
263.388730
263.385285
263.381883
263.378525
263.375209
263.371936
263.368705
263.365515
263.362366
263.359258
263.356189
263.353161
263.350172
263.347221
263.344309
263.341435
263.338599
263.335800
263.333038
263.330312
263.327622
263.324967
263.322348
263.319764
263.317214
263.314698
263.312215
263.309766
263.307350
263.304966
263.302615
263.300295
263.298007
263.295750
263.293523
263.291327
263.289161
263.287024
263.284917
263.282839
263.280789
263.278767
263.276774
263.274808
263.272870
263.270958
263.269073
263.267215
263.265382
263.263575
263.261794
263.260038
263.258306
263.256599
263.254916
263.253257
263.251622
263.250010
263.248421
263.246854
263.245311
263.243789
263.242289
263.240811
263.239354
263.237919
263.236504
263.235110
263.233736
263.232382
263.231048
263.229733
263.228438
263.227162
263.225904
263.224666
263.223445
263.222243
263.221058
263.219891
263.218742
263.217609
263.216494
263.215395
263.214313
263.213247
263.212197
263.211163
263.210145
263.209142
263.208154
263.207181
263.206224
263.205280
263.204351
263.203437
263.202536
263.201650
263.200777
263.199917
263.199071
263.198238
263.197417
263.196610
263.195815
263.195033
263.194262
263.193504
263.192758
263.192023
263.191300
263.190589
263.189888
263.189199
263.188521
263.187853
263.187196
263.186550
263.185913
263.185287
263.184671
263.184065
263.183469
263.182882
263.182305
263.181737
263.181178
263.180628
263.180088
263.179556
263.179032
263.178517
263.178011
263.177513
263.177023
263.176541
263.176067
263.175601
263.175143
263.174692
263.174248
263.173812
263.173383
263.172962
263.172547
263.172140
263.171739
263.171344
263.170957
263.170576
263.170201
263.169833
263.169471
263.169115
263.168765
263.168421
263.168083
263.167751
263.167424
263.167103
263.166787
263.166477
263.166172
263.165872
263.165578
263.165288
263.165004
263.164724
263.164450
263.164180
263.163915
263.163654
263.163398
263.163146
263.162899
263.162656
263.162418
263.162183
263.161953
263.161727
263.161505
263.161286
263.161072
263.160861
263.160654
263.160451
263.160251
263.160055
263.159863
263.159674
263.159488
263.159306
263.159126
263.158951
263.158778
263.158608
263.158442
263.158278
263.158118
263.157960
263.157805
263.157653
263.157504
263.157357
263.157214
263.157072
263.156934
263.156798
263.156664
263.156533
263.156404
263.156278
263.156154
263.156032
263.155913
263.155796
263.155681
263.155568
263.155457
263.155348
263.155242
263.155137
263.155034
263.154933
263.154835
263.154738
263.154642
263.154549
263.154457
263.154367
263.154279
263.154192
263.154108
263.154024
263.153942
263.153862
263.153784
263.153707
263.153631
263.153557
263.153484
263.153412
263.153342
263.153274
263.153206
263.153140
263.153076
263.153012
263.152950
263.152889
263.152829
263.152770
263.152712
263.152656
263.152600
263.152546
263.152493
263.152441
263.152389
263.152339
263.152290
263.152242
263.152194
263.152148
263.152102
263.152058
263.152014
263.151971
263.151929
263.151888
263.151848
263.151808
263.151769
263.151731
263.151694
263.151658
263.151622
263.151587
263.151552
263.151519
263.151486
263.151453
263.151421
263.151390
263.151360
263.151330
263.151301
263.151272
263.151244
263.151216
263.151189
263.151162
263.151136
263.151111
263.151086
263.151062
263.151037
263.151014
263.150991
263.150968
263.150946
263.150924
263.150903
263.150882
263.150862
263.150842
263.150822
263.150803
263.150784
263.150765
263.150747
263.150729
263.150711
263.150694
263.150677
263.150661
263.150645
263.150629
263.150613
263.150598
263.150583
263.150568
263.150553
263.150539
263.150525
263.150512
263.150498
263.150485
263.150472
263.150459
263.150446
263.150434
263.150422
263.150410
263.150398
263.150387
263.150376
263.150364
263.150353
263.150343
263.150332
263.150321
263.150311
263.150301
263.150291
263.150281
263.150271
263.150262
263.150252
263.150243
263.150234
263.150225
263.150216
263.150207
263.150198
263.150189
263.150181
263.150172
263.150164
263.150156
263.150147
263.150139
263.150131
263.150123
263.150115
263.150107
263.150099
263.150091
263.150084
263.150076
263.150068
263.150060
263.150053
263.150045
263.150038
263.150030
263.150023
263.150015
263.150008
263.150000
        </DataArray>
      </PointData>
      <CellData>
      </CellData>
    </Piece>
  </UnstructuredGrid>
</VTKFile>
