<?xml version="1.0"?>
<VTKFile type="UnstructuredGrid" version="0.1" byte_order="LittleEndian">
  <UnstructuredGrid>
    <Piece NumberOfPoints="801" NumberOfCells="800">
      <Points>
        <DataArray type="Float32" NumberOfComponents="3" format="ascii">
0.000000 0.0 0.0
0.005000 0.0 0.0
0.010000 0.0 0.0
0.015000 0.0 0.0
0.020000 0.0 0.0
0.025000 0.0 0.0
0.030000 0.0 0.0
0.035000 0.0 0.0
0.040000 0.0 0.0
0.045000 0.0 0.0
0.050000 0.0 0.0
0.055000 0.0 0.0
0.060000 0.0 0.0
0.065000 0.0 0.0
0.070000 0.0 0.0
0.075000 0.0 0.0
0.080000 0.0 0.0
0.085000 0.0 0.0
0.090000 0.0 0.0
0.095000 0.0 0.0
0.100000 0.0 0.0
0.105000 0.0 0.0
0.110000 0.0 0.0
0.115000 0.0 0.0
0.120000 0.0 0.0
0.125000 0.0 0.0
0.130000 0.0 0.0
0.135000 0.0 0.0
0.140000 0.0 0.0
0.145000 0.0 0.0
0.150000 0.0 0.0
0.155000 0.0 0.0
0.160000 0.0 0.0
0.165000 0.0 0.0
0.170000 0.0 0.0
0.175000 0.0 0.0
0.180000 0.0 0.0
0.185000 0.0 0.0
0.190000 0.0 0.0
0.195000 0.0 0.0
0.200000 0.0 0.0
0.205000 0.0 0.0
0.210000 0.0 0.0
0.215000 0.0 0.0
0.220000 0.0 0.0
0.225000 0.0 0.0
0.230000 0.0 0.0
0.235000 0.0 0.0
0.240000 0.0 0.0
0.245000 0.0 0.0
0.250000 0.0 0.0
0.255000 0.0 0.0
0.260000 0.0 0.0
0.265000 0.0 0.0
0.270000 0.0 0.0
0.275000 0.0 0.0
0.280000 0.0 0.0
0.285000 0.0 0.0
0.290000 0.0 0.0
0.295000 0.0 0.0
0.300000 0.0 0.0
0.305000 0.0 0.0
0.310000 0.0 0.0
0.315000 0.0 0.0
0.320000 0.0 0.0
0.325000 0.0 0.0
0.330000 0.0 0.0
0.335000 0.0 0.0
0.340000 0.0 0.0
0.345000 0.0 0.0
0.350000 0.0 0.0
0.355000 0.0 0.0
0.360000 0.0 0.0
0.365000 0.0 0.0
0.370000 0.0 0.0
0.375000 0.0 0.0
0.380000 0.0 0.0
0.385000 0.0 0.0
0.390000 0.0 0.0
0.395000 0.0 0.0
0.400000 0.0 0.0
0.405000 0.0 0.0
0.410000 0.0 0.0
0.415000 0.0 0.0
0.420000 0.0 0.0
0.425000 0.0 0.0
0.430000 0.0 0.0
0.435000 0.0 0.0
0.440000 0.0 0.0
0.445000 0.0 0.0
0.450000 0.0 0.0
0.455000 0.0 0.0
0.460000 0.0 0.0
0.465000 0.0 0.0
0.470000 0.0 0.0
0.475000 0.0 0.0
0.480000 0.0 0.0
0.485000 0.0 0.0
0.490000 0.0 0.0
0.495000 0.0 0.0
0.500000 0.0 0.0
0.505000 0.0 0.0
0.510000 0.0 0.0
0.515000 0.0 0.0
0.520000 0.0 0.0
0.525000 0.0 0.0
0.530000 0.0 0.0
0.535000 0.0 0.0
0.540000 0.0 0.0
0.545000 0.0 0.0
0.550000 0.0 0.0
0.555000 0.0 0.0
0.560000 0.0 0.0
0.565000 0.0 0.0
0.570000 0.0 0.0
0.575000 0.0 0.0
0.580000 0.0 0.0
0.585000 0.0 0.0
0.590000 0.0 0.0
0.595000 0.0 0.0
0.600000 0.0 0.0
0.605000 0.0 0.0
0.610000 0.0 0.0
0.615000 0.0 0.0
0.620000 0.0 0.0
0.625000 0.0 0.0
0.630000 0.0 0.0
0.635000 0.0 0.0
0.640000 0.0 0.0
0.645000 0.0 0.0
0.650000 0.0 0.0
0.655000 0.0 0.0
0.660000 0.0 0.0
0.665000 0.0 0.0
0.670000 0.0 0.0
0.675000 0.0 0.0
0.680000 0.0 0.0
0.685000 0.0 0.0
0.690000 0.0 0.0
0.695000 0.0 0.0
0.700000 0.0 0.0
0.705000 0.0 0.0
0.710000 0.0 0.0
0.715000 0.0 0.0
0.720000 0.0 0.0
0.725000 0.0 0.0
0.730000 0.0 0.0
0.735000 0.0 0.0
0.740000 0.0 0.0
0.745000 0.0 0.0
0.750000 0.0 0.0
0.755000 0.0 0.0
0.760000 0.0 0.0
0.765000 0.0 0.0
0.770000 0.0 0.0
0.775000 0.0 0.0
0.780000 0.0 0.0
0.785000 0.0 0.0
0.790000 0.0 0.0
0.795000 0.0 0.0
0.800000 0.0 0.0
0.805000 0.0 0.0
0.810000 0.0 0.0
0.815000 0.0 0.0
0.820000 0.0 0.0
0.825000 0.0 0.0
0.830000 0.0 0.0
0.835000 0.0 0.0
0.840000 0.0 0.0
0.845000 0.0 0.0
0.850000 0.0 0.0
0.855000 0.0 0.0
0.860000 0.0 0.0
0.865000 0.0 0.0
0.870000 0.0 0.0
0.875000 0.0 0.0
0.880000 0.0 0.0
0.885000 0.0 0.0
0.890000 0.0 0.0
0.895000 0.0 0.0
0.900000 0.0 0.0
0.905000 0.0 0.0
0.910000 0.0 0.0
0.915000 0.0 0.0
0.920000 0.0 0.0
0.925000 0.0 0.0
0.930000 0.0 0.0
0.935000 0.0 0.0
0.940000 0.0 0.0
0.945000 0.0 0.0
0.950000 0.0 0.0
0.955000 0.0 0.0
0.960000 0.0 0.0
0.965000 0.0 0.0
0.970000 0.0 0.0
0.975000 0.0 0.0
0.980000 0.0 0.0
0.985000 0.0 0.0
0.990000 0.0 0.0
0.995000 0.0 0.0
1.000000 0.0 0.0
1.005000 0.0 0.0
1.010000 0.0 0.0
1.015000 0.0 0.0
1.020000 0.0 0.0
1.025000 0.0 0.0
1.030000 0.0 0.0
1.035000 0.0 0.0
1.040000 0.0 0.0
1.045000 0.0 0.0
1.050000 0.0 0.0
1.055000 0.0 0.0
1.060000 0.0 0.0
1.065000 0.0 0.0
1.070000 0.0 0.0
1.075000 0.0 0.0
1.080000 0.0 0.0
1.085000 0.0 0.0
1.090000 0.0 0.0
1.095000 0.0 0.0
1.100000 0.0 0.0
1.105000 0.0 0.0
1.110000 0.0 0.0
1.115000 0.0 0.0
1.120000 0.0 0.0
1.125000 0.0 0.0
1.130000 0.0 0.0
1.135000 0.0 0.0
1.140000 0.0 0.0
1.145000 0.0 0.0
1.150000 0.0 0.0
1.155000 0.0 0.0
1.160000 0.0 0.0
1.165000 0.0 0.0
1.170000 0.0 0.0
1.175000 0.0 0.0
1.180000 0.0 0.0
1.185000 0.0 0.0
1.190000 0.0 0.0
1.195000 0.0 0.0
1.200000 0.0 0.0
1.205000 0.0 0.0
1.210000 0.0 0.0
1.215000 0.0 0.0
1.220000 0.0 0.0
1.225000 0.0 0.0
1.230000 0.0 0.0
1.235000 0.0 0.0
1.240000 0.0 0.0
1.245000 0.0 0.0
1.250000 0.0 0.0
1.255000 0.0 0.0
1.260000 0.0 0.0
1.265000 0.0 0.0
1.270000 0.0 0.0
1.275000 0.0 0.0
1.280000 0.0 0.0
1.285000 0.0 0.0
1.290000 0.0 0.0
1.295000 0.0 0.0
1.300000 0.0 0.0
1.305000 0.0 0.0
1.310000 0.0 0.0
1.315000 0.0 0.0
1.320000 0.0 0.0
1.325000 0.0 0.0
1.330000 0.0 0.0
1.335000 0.0 0.0
1.340000 0.0 0.0
1.345000 0.0 0.0
1.350000 0.0 0.0
1.355000 0.0 0.0
1.360000 0.0 0.0
1.365000 0.0 0.0
1.370000 0.0 0.0
1.375000 0.0 0.0
1.380000 0.0 0.0
1.385000 0.0 0.0
1.390000 0.0 0.0
1.395000 0.0 0.0
1.400000 0.0 0.0
1.405000 0.0 0.0
1.410000 0.0 0.0
1.415000 0.0 0.0
1.420000 0.0 0.0
1.425000 0.0 0.0
1.430000 0.0 0.0
1.435000 0.0 0.0
1.440000 0.0 0.0
1.445000 0.0 0.0
1.450000 0.0 0.0
1.455000 0.0 0.0
1.460000 0.0 0.0
1.465000 0.0 0.0
1.470000 0.0 0.0
1.475000 0.0 0.0
1.480000 0.0 0.0
1.485000 0.0 0.0
1.490000 0.0 0.0
1.495000 0.0 0.0
1.500000 0.0 0.0
1.505000 0.0 0.0
1.510000 0.0 0.0
1.515000 0.0 0.0
1.520000 0.0 0.0
1.525000 0.0 0.0
1.530000 0.0 0.0
1.535000 0.0 0.0
1.540000 0.0 0.0
1.545000 0.0 0.0
1.550000 0.0 0.0
1.555000 0.0 0.0
1.560000 0.0 0.0
1.565000 0.0 0.0
1.570000 0.0 0.0
1.575000 0.0 0.0
1.580000 0.0 0.0
1.585000 0.0 0.0
1.590000 0.0 0.0
1.595000 0.0 0.0
1.600000 0.0 0.0
1.605000 0.0 0.0
1.610000 0.0 0.0
1.615000 0.0 0.0
1.620000 0.0 0.0
1.625000 0.0 0.0
1.630000 0.0 0.0
1.635000 0.0 0.0
1.640000 0.0 0.0
1.645000 0.0 0.0
1.650000 0.0 0.0
1.655000 0.0 0.0
1.660000 0.0 0.0
1.665000 0.0 0.0
1.670000 0.0 0.0
1.675000 0.0 0.0
1.680000 0.0 0.0
1.685000 0.0 0.0
1.690000 0.0 0.0
1.695000 0.0 0.0
1.700000 0.0 0.0
1.705000 0.0 0.0
1.710000 0.0 0.0
1.715000 0.0 0.0
1.720000 0.0 0.0
1.725000 0.0 0.0
1.730000 0.0 0.0
1.735000 0.0 0.0
1.740000 0.0 0.0
1.745000 0.0 0.0
1.750000 0.0 0.0
1.755000 0.0 0.0
1.760000 0.0 0.0
1.765000 0.0 0.0
1.770000 0.0 0.0
1.775000 0.0 0.0
1.780000 0.0 0.0
1.785000 0.0 0.0
1.790000 0.0 0.0
1.795000 0.0 0.0
1.800000 0.0 0.0
1.805000 0.0 0.0
1.810000 0.0 0.0
1.815000 0.0 0.0
1.820000 0.0 0.0
1.825000 0.0 0.0
1.830000 0.0 0.0
1.835000 0.0 0.0
1.840000 0.0 0.0
1.845000 0.0 0.0
1.850000 0.0 0.0
1.855000 0.0 0.0
1.860000 0.0 0.0
1.865000 0.0 0.0
1.870000 0.0 0.0
1.875000 0.0 0.0
1.880000 0.0 0.0
1.885000 0.0 0.0
1.890000 0.0 0.0
1.895000 0.0 0.0
1.900000 0.0 0.0
1.905000 0.0 0.0
1.910000 0.0 0.0
1.915000 0.0 0.0
1.920000 0.0 0.0
1.925000 0.0 0.0
1.930000 0.0 0.0
1.935000 0.0 0.0
1.940000 0.0 0.0
1.945000 0.0 0.0
1.950000 0.0 0.0
1.955000 0.0 0.0
1.960000 0.0 0.0
1.965000 0.0 0.0
1.970000 0.0 0.0
1.975000 0.0 0.0
1.980000 0.0 0.0
1.985000 0.0 0.0
1.990000 0.0 0.0
1.995000 0.0 0.0
2.000000 0.0 0.0
2.005000 0.0 0.0
2.010000 0.0 0.0
2.015000 0.0 0.0
2.020000 0.0 0.0
2.025000 0.0 0.0
2.030000 0.0 0.0
2.035000 0.0 0.0
2.040000 0.0 0.0
2.045000 0.0 0.0
2.050000 0.0 0.0
2.055000 0.0 0.0
2.060000 0.0 0.0
2.065000 0.0 0.0
2.070000 0.0 0.0
2.075000 0.0 0.0
2.080000 0.0 0.0
2.085000 0.0 0.0
2.090000 0.0 0.0
2.095000 0.0 0.0
2.100000 0.0 0.0
2.105000 0.0 0.0
2.110000 0.0 0.0
2.115000 0.0 0.0
2.120000 0.0 0.0
2.125000 0.0 0.0
2.130000 0.0 0.0
2.135000 0.0 0.0
2.140000 0.0 0.0
2.145000 0.0 0.0
2.150000 0.0 0.0
2.155000 0.0 0.0
2.160000 0.0 0.0
2.165000 0.0 0.0
2.170000 0.0 0.0
2.175000 0.0 0.0
2.180000 0.0 0.0
2.185000 0.0 0.0
2.190000 0.0 0.0
2.195000 0.0 0.0
2.200000 0.0 0.0
2.205000 0.0 0.0
2.210000 0.0 0.0
2.215000 0.0 0.0
2.220000 0.0 0.0
2.225000 0.0 0.0
2.230000 0.0 0.0
2.235000 0.0 0.0
2.240000 0.0 0.0
2.245000 0.0 0.0
2.250000 0.0 0.0
2.255000 0.0 0.0
2.260000 0.0 0.0
2.265000 0.0 0.0
2.270000 0.0 0.0
2.275000 0.0 0.0
2.280000 0.0 0.0
2.285000 0.0 0.0
2.290000 0.0 0.0
2.295000 0.0 0.0
2.300000 0.0 0.0
2.305000 0.0 0.0
2.310000 0.0 0.0
2.315000 0.0 0.0
2.320000 0.0 0.0
2.325000 0.0 0.0
2.330000 0.0 0.0
2.335000 0.0 0.0
2.340000 0.0 0.0
2.345000 0.0 0.0
2.350000 0.0 0.0
2.355000 0.0 0.0
2.360000 0.0 0.0
2.365000 0.0 0.0
2.370000 0.0 0.0
2.375000 0.0 0.0
2.380000 0.0 0.0
2.385000 0.0 0.0
2.390000 0.0 0.0
2.395000 0.0 0.0
2.400000 0.0 0.0
2.405000 0.0 0.0
2.410000 0.0 0.0
2.415000 0.0 0.0
2.420000 0.0 0.0
2.425000 0.0 0.0
2.430000 0.0 0.0
2.435000 0.0 0.0
2.440000 0.0 0.0
2.445000 0.0 0.0
2.450000 0.0 0.0
2.455000 0.0 0.0
2.460000 0.0 0.0
2.465000 0.0 0.0
2.470000 0.0 0.0
2.475000 0.0 0.0
2.480000 0.0 0.0
2.485000 0.0 0.0
2.490000 0.0 0.0
2.495000 0.0 0.0
2.500000 0.0 0.0
2.505000 0.0 0.0
2.510000 0.0 0.0
2.515000 0.0 0.0
2.520000 0.0 0.0
2.525000 0.0 0.0
2.530000 0.0 0.0
2.535000 0.0 0.0
2.540000 0.0 0.0
2.545000 0.0 0.0
2.550000 0.0 0.0
2.555000 0.0 0.0
2.560000 0.0 0.0
2.565000 0.0 0.0
2.570000 0.0 0.0
2.575000 0.0 0.0
2.580000 0.0 0.0
2.585000 0.0 0.0
2.590000 0.0 0.0
2.595000 0.0 0.0
2.600000 0.0 0.0
2.605000 0.0 0.0
2.610000 0.0 0.0
2.615000 0.0 0.0
2.620000 0.0 0.0
2.625000 0.0 0.0
2.630000 0.0 0.0
2.635000 0.0 0.0
2.640000 0.0 0.0
2.645000 0.0 0.0
2.650000 0.0 0.0
2.655000 0.0 0.0
2.660000 0.0 0.0
2.665000 0.0 0.0
2.670000 0.0 0.0
2.675000 0.0 0.0
2.680000 0.0 0.0
2.685000 0.0 0.0
2.690000 0.0 0.0
2.695000 0.0 0.0
2.700000 0.0 0.0
2.705000 0.0 0.0
2.710000 0.0 0.0
2.715000 0.0 0.0
2.720000 0.0 0.0
2.725000 0.0 0.0
2.730000 0.0 0.0
2.735000 0.0 0.0
2.740000 0.0 0.0
2.745000 0.0 0.0
2.750000 0.0 0.0
2.755000 0.0 0.0
2.760000 0.0 0.0
2.765000 0.0 0.0
2.770000 0.0 0.0
2.775000 0.0 0.0
2.780000 0.0 0.0
2.785000 0.0 0.0
2.790000 0.0 0.0
2.795000 0.0 0.0
2.800000 0.0 0.0
2.805000 0.0 0.0
2.810000 0.0 0.0
2.815000 0.0 0.0
2.820000 0.0 0.0
2.825000 0.0 0.0
2.830000 0.0 0.0
2.835000 0.0 0.0
2.840000 0.0 0.0
2.845000 0.0 0.0
2.850000 0.0 0.0
2.855000 0.0 0.0
2.860000 0.0 0.0
[...]
      <PointData Scalars="Temperature">
        <DataArray type="Float32" Name="Temperature" format="ascii">
308.150000
307.226860
306.303901
305.381305
304.459254
303.537929
302.617509
301.698176
300.780108
299.863485
298.948484
298.035281
297.124054
296.214976
295.308221
294.403961
293.502367
292.603606
291.707848
290.815257
289.925997
289.040230
288.158116
287.279811
286.405471
285.535250
284.669297
283.807761
282.950787
282.098519
281.251096
280.408657
279.571338
278.739270
277.912586
277.091412
276.275877
275.466115
274.662854
273.892595
273.373483
273.128285
272.983810
272.879318
272.794886
272.722149
272.656904
272.596771
272.540282
272.486477
272.434698
272.384476
272.335471
272.287429
272.240158
272.193510
272.147371
272.101652
272.056281
272.011205
271.966378
271.921765
271.877339
271.833077
271.788962
271.744979
271.701117
271.657368
271.613723
271.570179
271.526729
271.483372
271.440104
271.396923
271.353829
271.310821
271.267897
271.225058
271.182303
271.139633
271.097048
271.054548
271.012134
270.969806
270.927565
270.885412
270.843347
270.801371
270.759485
270.717690
270.675985
270.634373
270.592854
270.551429
270.510098
270.468863
270.427724
270.386682
270.345738
270.304892
270.264146
270.223500
270.182955
270.142511
270.102171
270.061933
270.021800
269.981771
269.941848
269.902032
269.862322
269.822720
269.783227
269.743842
269.704568
269.665405
269.626352
269.587412
269.548584
269.509870
269.471269
269.432783
269.394413
269.356158
269.318020
269.279999
269.242096
269.204311
269.166645
269.129099
269.091673
269.054367
269.017183
268.980121
268.943181
268.906364
268.869670
268.833101
268.796656
268.760336
268.724141
268.688073
268.652131
268.616316
268.580628
268.545068
268.509637
268.474334
268.439161
268.404117
268.369203
268.334420
268.299768
268.265247
268.230857
268.196600
268.162475
268.128483
268.094624
268.060898
268.027306
267.993848
267.960525
267.927337
267.894283
267.861365
267.828582
267.795936
267.763426
267.731052
267.698814
267.666714
267.634751
267.602925
267.571237
267.539687
267.508275
267.477001
267.445866
267.414869
267.384011
267.353292
267.322712
267.292272
267.261971
267.231809
267.201787
267.171905
267.142163
267.112561
267.083099
267.053777
267.024596
266.995555
266.966654
266.937894
266.909274
266.880795
266.852457
266.824259
266.796202
266.768286
266.740510
266.712875
266.685381
266.658027
266.630814
266.603741
266.576810
266.550018
266.523367
266.496857
266.470487
266.444257
266.418168
266.392218
266.366409
266.340740
266.315210
266.289820
266.264570
266.239459
266.214488
266.189655
266.164962
266.140408
266.115992
266.091715
266.067577
266.043577
266.019715
265.995990
265.972404
265.948955
265.925643
265.902468
265.879430
265.856529
265.833764
265.811135
265.788643
265.766286
265.744064
265.721978
265.700026
265.678209
265.656527
265.634978
265.613564
265.592283
265.571135
265.550120
265.529238
265.508488
265.487870
265.467384
265.447030
265.426806
265.406713
265.386750
265.366918
265.347215
265.327641
265.308197
265.288881
265.269694
265.250634
265.231702
265.212897
265.194219
265.175667
265.157241
265.138941
265.120767
265.102717
265.084791
265.066990
265.049312
265.031757
265.014325
264.997016
264.979828
264.962762
264.945818
264.928993
264.912290
264.895705
264.879241
264.862895
264.846668
264.830558
264.814566
264.798692
264.782934
264.767292
264.751766
264.736355
264.721059
264.705878
264.690810
264.675856
264.661014
264.646285
264.631668
264.617163
264.602768
264.588484
264.574310
264.560246
264.546290
264.532443
264.518704
264.505073
264.491548
264.478131
264.464819
264.451613
264.438511
264.425515
264.412622
264.399833
264.387147
264.374563
264.362081
264.349701
264.337422
264.325243
264.313164
264.301185
264.289304
264.277522
264.265837
264.254250
264.242760
264.231366
264.220067
264.208864
264.197756
264.186742
264.175821
264.164994
264.154259
264.143617
264.133066
264.122606
264.112236
264.101957
264.091767
264.081666
264.071653
264.061729
264.051891
264.042141
264.032477
264.022899
264.013406
264.003997
263.994673
263.985433
263.976276
263.967202
263.958209
263.949299
263.940469
263.931720
263.923051
263.914462
263.905952
263.897520
263.889167
263.880891
263.872691
263.864569
263.856522
263.848551
263.840654
263.832832
263.825084
263.817410
263.809808
263.802279
263.794822
263.787436
263.780121
263.772876
263.765701
263.758596
263.751560
263.744592
263.737692
263.730859
263.724094
263.717394
263.710761
263.704194
263.697691
263.691253
263.684879
263.678568
263.672320
263.666135
263.660013
263.653952
263.647952
263.642012
263.636133
263.630314
263.624554
263.618853
263.613211
263.607626
263.602099
263.596628
263.591215
263.585857
263.580555
263.575309
263.570117
263.564979
263.559896
263.554865
263.549888
263.544964
263.540091
263.535270
263.530501
263.525782
263.521114
263.516495
263.511927
263.507407
263.502936
263.498514
263.494139
263.489812
263.485532
263.481299
263.477112
263.472970
263.468875
263.464824
263.460818
263.456856
263.452938
263.449064
263.445233
263.441444
263.437698
263.433993
263.430331
263.426709
263.423128
263.419588
263.416088
263.412628
263.409206
263.405824
263.402481
263.399175
263.395908
263.392678
263.389485
263.386330
263.383210
263.380127
263.377080
263.374068
263.371091
263.368149
263.365241
263.362368
263.359528
263.356722
263.353949
263.351208
263.348501
263.345825
263.343181
263.340569
263.337988
263.335438
263.332918
263.330429
263.327970
263.325540
263.323140
263.320769
263.318426
263.316112
263.313827
263.311569
263.309339
263.307136
263.304961
263.302812
263.300689
263.298593
263.296523
263.294479
263.292460
263.290466
263.288497
263.286552
263.284632
263.282736
263.280864
263.279016
263.277190
263.275388
263.273609
263.271852
263.270118
263.268406
263.266715
263.265047
263.263399
263.261773
263.260168
263.258583
263.257019
263.255475
263.253951
263.252447
263.250962
263.249497
263.248051
263.246624
263.245215
263.243825
263.242454
263.241100
263.239764
263.238446
263.237145
263.235862
263.234595
263.233346
263.232113
263.230897
263.229697
263.228513
263.227344
263.226192
263.225055
263.223934
263.222827
263.221736
263.220660
263.219598
263.218550
263.217517
263.216498
263.215493
263.214502
263.213524
263.212560
263.211609
263.210671
263.209746
263.208834
263.207935
263.207048
263.206174
263.205312
263.204461
263.203623
263.202796
263.201982
263.201178
263.200386
263.199605
263.198835
263.198076
263.197328
263.196590
263.195863
263.195146
263.194439
263.193743
263.193056
263.192380
263.191713
263.191056
263.190408
263.189769
263.189140
263.188520
263.187909
263.187306
263.186713
263.186128
263.185552
263.184984
263.184424
263.183873
263.183330
263.182794
263.182267
263.181747
263.181235
263.180731
263.180234
263.179745
263.179262
263.178787
263.178319
263.177859
263.177404
263.176957
263.176517
263.176083
263.175655
263.175234
263.174820
263.174411
263.174009
263.173613
263.173223
263.172839
263.172461
263.172088
263.171722
263.171360
263.171005
263.170654
263.170310
263.169970
263.169636
263.169307
263.168983
263.168663
263.168349
263.168040
263.167736
263.167436
263.167141
263.166850
263.166565
263.166283
263.166006
263.165733
263.165465
263.165201
263.164941
263.164685
263.164433
263.164185
263.163941
263.163701
263.163464
263.163232
263.163003
263.162777
263.162556
263.162338
263.162123
263.161912
263.161704
263.161499
263.161298
263.161100
263.160905
263.160713
263.160525
263.160339
263.160156
263.159977
263.159800
263.159626
263.159455
263.159287
263.159121
263.158958
263.158798
263.158640
263.158485
263.158333
263.158182
263.158035
263.157890
263.157747
263.157606
263.157468
263.157332
263.157198
263.157067
263.156937
263.156810
263.156685
263.156561
263.156440
263.156321
263.156204
263.156088
263.155975
263.155863
263.155754
263.155646
263.155540
263.155435
263.155332
263.155231
263.155132
263.155034
263.154938
263.154844
263.154750
263.154659
263.154569
263.154480
263.154393
263.154307
263.154223
263.154140
263.154058
263.153978
263.153899
263.153821
263.153745
263.153670
263.153595
263.153523
263.153451
263.153380
263.153311
263.153242
263.153175
263.153109
263.153044
263.152979
263.152916
263.152854
263.152793
263.152732
263.152673
263.152614
263.152557
263.152500
263.152444
263.152389
263.152335
263.152281
263.152228
263.152176
263.152125
263.152075
263.152025
263.151976
263.151927
263.151880
263.151833
263.151786
263.151740
263.151695
263.151650
263.151606
263.151563
263.151520
263.151477
263.151435
263.151394
263.151353
263.151313
263.151273
263.151233
263.151194
263.151155
263.151117
263.151079
263.151042
263.151004
263.150968
263.150931
263.150895
263.150859
263.150824
263.150788
263.150754
263.150719
263.150684
263.150650
263.150616
263.150583
263.150549
263.150516
263.150483
263.150450
263.150417
263.150384
263.150352
263.150319
263.150287
263.150255
263.150223
263.150191
263.150159
263.150127
263.150095
263.150064
263.150032
263.150000
        </DataArray>
      </PointData>
      <CellData>
      </CellData>
    </Piece>
  </UnstructuredGrid>
</VTKFile>
