<?xml version="1.0"?>
<VTKFile type="UnstructuredGrid" version="0.1" byte_order="LittleEndian">
  <UnstructuredGrid>
    <Piece NumberOfPoints="801" NumberOfCells="800">
      <Points>
        <DataArray type="Float32" NumberOfComponents="3" format="ascii">
0.000000 0.0 0.0
0.005000 0.0 0.0
0.010000 0.0 0.0
0.015000 0.0 0.0
0.020000 0.0 0.0
0.025000 0.0 0.0
0.030000 0.0 0.0
0.035000 0.0 0.0
0.040000 0.0 0.0
0.045000 0.0 0.0
0.050000 0.0 0.0
0.055000 0.0 0.0
0.060000 0.0 0.0
0.065000 0.0 0.0
0.070000 0.0 0.0
0.075000 0.0 0.0
0.080000 0.0 0.0
0.085000 0.0 0.0
0.090000 0.0 0.0
0.095000 0.0 0.0
0.100000 0.0 0.0
0.105000 0.0 0.0
0.110000 0.0 0.0
0.115000 0.0 0.0
0.120000 0.0 0.0
0.125000 0.0 0.0
0.130000 0.0 0.0
0.135000 0.0 0.0
0.140000 0.0 0.0
0.145000 0.0 0.0
0.150000 0.0 0.0
0.155000 0.0 0.0
0.160000 0.0 0.0
0.165000 0.0 0.0
0.170000 0.0 0.0
0.175000 0.0 0.0
0.180000 0.0 0.0
0.185000 0.0 0.0
0.190000 0.0 0.0
0.195000 0.0 0.0
0.200000 0.0 0.0
0.205000 0.0 0.0
0.210000 0.0 0.0
0.215000 0.0 0.0
0.220000 0.0 0.0
0.225000 0.0 0.0
0.230000 0.0 0.0
0.235000 0.0 0.0
0.240000 0.0 0.0
0.245000 0.0 0.0
0.250000 0.0 0.0
0.255000 0.0 0.0
0.260000 0.0 0.0
0.265000 0.0 0.0
0.270000 0.0 0.0
0.275000 0.0 0.0
0.280000 0.0 0.0
0.285000 0.0 0.0
0.290000 0.0 0.0
0.295000 0.0 0.0
0.300000 0.0 0.0
0.305000 0.0 0.0
0.310000 0.0 0.0
0.315000 0.0 0.0
0.320000 0.0 0.0
0.325000 0.0 0.0
0.330000 0.0 0.0
0.335000 0.0 0.0
0.340000 0.0 0.0
0.345000 0.0 0.0
0.350000 0.0 0.0
0.355000 0.0 0.0
0.360000 0.0 0.0
0.365000 0.0 0.0
0.370000 0.0 0.0
0.375000 0.0 0.0
0.380000 0.0 0.0
0.385000 0.0 0.0
0.390000 0.0 0.0
0.395000 0.0 0.0
0.400000 0.0 0.0
0.405000 0.0 0.0
0.410000 0.0 0.0
0.415000 0.0 0.0
0.420000 0.0 0.0
0.425000 0.0 0.0
0.430000 0.0 0.0
0.435000 0.0 0.0
0.440000 0.0 0.0
0.445000 0.0 0.0
0.450000 0.0 0.0
0.455000 0.0 0.0
0.460000 0.0 0.0
0.465000 0.0 0.0
0.470000 0.0 0.0
0.475000 0.0 0.0
0.480000 0.0 0.0
0.485000 0.0 0.0
0.490000 0.0 0.0
0.495000 0.0 0.0
0.500000 0.0 0.0
0.505000 0.0 0.0
0.510000 0.0 0.0
0.515000 0.0 0.0
0.520000 0.0 0.0
0.525000 0.0 0.0
0.530000 0.0 0.0
0.535000 0.0 0.0
0.540000 0.0 0.0
0.545000 0.0 0.0
0.550000 0.0 0.0
0.555000 0.0 0.0
0.560000 0.0 0.0
0.565000 0.0 0.0
0.570000 0.0 0.0
0.575000 0.0 0.0
0.580000 0.0 0.0
0.585000 0.0 0.0
0.590000 0.0 0.0
0.595000 0.0 0.0
0.600000 0.0 0.0
0.605000 0.0 0.0
0.610000 0.0 0.0
0.615000 0.0 0.0
0.620000 0.0 0.0
0.625000 0.0 0.0
0.630000 0.0 0.0
0.635000 0.0 0.0
0.640000 0.0 0.0
0.645000 0.0 0.0
0.650000 0.0 0.0
0.655000 0.0 0.0
0.660000 0.0 0.0
0.665000 0.0 0.0
0.670000 0.0 0.0
0.675000 0.0 0.0
0.680000 0.0 0.0
0.685000 0.0 0.0
0.690000 0.0 0.0
0.695000 0.0 0.0
0.700000 0.0 0.0
0.705000 0.0 0.0
0.710000 0.0 0.0
0.715000 0.0 0.0
0.720000 0.0 0.0
0.725000 0.0 0.0
0.730000 0.0 0.0
0.735000 0.0 0.0
0.740000 0.0 0.0
0.745000 0.0 0.0
0.750000 0.0 0.0
0.755000 0.0 0.0
0.760000 0.0 0.0
0.765000 0.0 0.0
0.770000 0.0 0.0
0.775000 0.0 0.0
0.780000 0.0 0.0
0.785000 0.0 0.0
0.790000 0.0 0.0
0.795000 0.0 0.0
0.800000 0.0 0.0
0.805000 0.0 0.0
0.810000 0.0 0.0
0.815000 0.0 0.0
0.820000 0.0 0.0
0.825000 0.0 0.0
0.830000 0.0 0.0
0.835000 0.0 0.0
0.840000 0.0 0.0
0.845000 0.0 0.0
0.850000 0.0 0.0
0.855000 0.0 0.0
0.860000 0.0 0.0
0.865000 0.0 0.0
0.870000 0.0 0.0
0.875000 0.0 0.0
0.880000 0.0 0.0
0.885000 0.0 0.0
0.890000 0.0 0.0
0.895000 0.0 0.0
0.900000 0.0 0.0
0.905000 0.0 0.0
0.910000 0.0 0.0
0.915000 0.0 0.0
0.920000 0.0 0.0
0.925000 0.0 0.0
0.930000 0.0 0.0
0.935000 0.0 0.0
0.940000 0.0 0.0
0.945000 0.0 0.0
0.950000 0.0 0.0
0.955000 0.0 0.0
0.960000 0.0 0.0
0.965000 0.0 0.0
0.970000 0.0 0.0
0.975000 0.0 0.0
0.980000 0.0 0.0
0.985000 0.0 0.0
0.990000 0.0 0.0
0.995000 0.0 0.0
1.000000 0.0 0.0
1.005000 0.0 0.0
1.010000 0.0 0.0
1.015000 0.0 0.0
1.020000 0.0 0.0
1.025000 0.0 0.0
1.030000 0.0 0.0
1.035000 0.0 0.0
1.040000 0.0 0.0
1.045000 0.0 0.0
1.050000 0.0 0.0
1.055000 0.0 0.0
1.060000 0.0 0.0
1.065000 0.0 0.0
1.070000 0.0 0.0
1.075000 0.0 0.0
1.080000 0.0 0.0
1.085000 0.0 0.0
1.090000 0.0 0.0
1.095000 0.0 0.0
1.100000 0.0 0.0
1.105000 0.0 0.0
1.110000 0.0 0.0
1.115000 0.0 0.0
1.120000 0.0 0.0
1.125000 0.0 0.0
1.130000 0.0 0.0
1.135000 0.0 0.0
1.140000 0.0 0.0
1.145000 0.0 0.0
1.150000 0.0 0.0
1.155000 0.0 0.0
1.160000 0.0 0.0
1.165000 0.0 0.0
1.170000 0.0 0.0
1.175000 0.0 0.0
1.180000 0.0 0.0
1.185000 0.0 0.0
1.190000 0.0 0.0
1.195000 0.0 0.0
1.200000 0.0 0.0
1.205000 0.0 0.0
1.210000 0.0 0.0
1.215000 0.0 0.0
1.220000 0.0 0.0
1.225000 0.0 0.0
1.230000 0.0 0.0
1.235000 0.0 0.0
1.240000 0.0 0.0
1.245000 0.0 0.0
1.250000 0.0 0.0
1.255000 0.0 0.0
1.260000 0.0 0.0
1.265000 0.0 0.0
1.270000 0.0 0.0
1.275000 0.0 0.0
1.280000 0.0 0.0
1.285000 0.0 0.0
1.290000 0.0 0.0
1.295000 0.0 0.0
1.300000 0.0 0.0
1.305000 0.0 0.0
1.310000 0.0 0.0
1.315000 0.0 0.0
1.320000 0.0 0.0
1.325000 0.0 0.0
1.330000 0.0 0.0
1.335000 0.0 0.0
1.340000 0.0 0.0
1.345000 0.0 0.0
1.350000 0.0 0.0
1.355000 0.0 0.0
1.360000 0.0 0.0
1.365000 0.0 0.0
1.370000 0.0 0.0
1.375000 0.0 0.0
1.380000 0.0 0.0
1.385000 0.0 0.0
1.390000 0.0 0.0
1.395000 0.0 0.0
1.400000 0.0 0.0
1.405000 0.0 0.0
1.410000 0.0 0.0
1.415000 0.0 0.0
1.420000 0.0 0.0
1.425000 0.0 0.0
1.430000 0.0 0.0
1.435000 0.0 0.0
1.440000 0.0 0.0
1.445000 0.0 0.0
1.450000 0.0 0.0
1.455000 0.0 0.0
1.460000 0.0 0.0
1.465000 0.0 0.0
1.470000 0.0 0.0
1.475000 0.0 0.0
1.480000 0.0 0.0
1.485000 0.0 0.0
1.490000 0.0 0.0
1.495000 0.0 0.0
1.500000 0.0 0.0
1.505000 0.0 0.0
1.510000 0.0 0.0
1.515000 0.0 0.0
1.520000 0.0 0.0
1.525000 0.0 0.0
1.530000 0.0 0.0
1.535000 0.0 0.0
1.540000 0.0 0.0
1.545000 0.0 0.0
1.550000 0.0 0.0
1.555000 0.0 0.0
1.560000 0.0 0.0
1.565000 0.0 0.0
1.570000 0.0 0.0
1.575000 0.0 0.0
1.580000 0.0 0.0
1.585000 0.0 0.0
1.590000 0.0 0.0
1.595000 0.0 0.0
1.600000 0.0 0.0
1.605000 0.0 0.0
1.610000 0.0 0.0
1.615000 0.0 0.0
1.620000 0.0 0.0
1.625000 0.0 0.0
1.630000 0.0 0.0
1.635000 0.0 0.0
1.640000 0.0 0.0
1.645000 0.0 0.0
1.650000 0.0 0.0
1.655000 0.0 0.0
1.660000 0.0 0.0
1.665000 0.0 0.0
1.670000 0.0 0.0
1.675000 0.0 0.0
1.680000 0.0 0.0
1.685000 0.0 0.0
1.690000 0.0 0.0
1.695000 0.0 0.0
1.700000 0.0 0.0
1.705000 0.0 0.0
1.710000 0.0 0.0
1.715000 0.0 0.0
1.720000 0.0 0.0
1.725000 0.0 0.0
1.730000 0.0 0.0
1.735000 0.0 0.0
1.740000 0.0 0.0
1.745000 0.0 0.0
1.750000 0.0 0.0
1.755000 0.0 0.0
1.760000 0.0 0.0
1.765000 0.0 0.0
1.770000 0.0 0.0
1.775000 0.0 0.0
1.780000 0.0 0.0
1.785000 0.0 0.0
1.790000 0.0 0.0
1.795000 0.0 0.0
1.800000 0.0 0.0
1.805000 0.0 0.0
1.810000 0.0 0.0
1.815000 0.0 0.0
1.820000 0.0 0.0
1.825000 0.0 0.0
1.830000 0.0 0.0
1.835000 0.0 0.0
1.840000 0.0 0.0
1.845000 0.0 0.0
1.850000 0.0 0.0
1.855000 0.0 0.0
1.860000 0.0 0.0
1.865000 0.0 0.0
1.870000 0.0 0.0
1.875000 0.0 0.0
1.880000 0.0 0.0
1.885000 0.0 0.0
1.890000 0.0 0.0
1.895000 0.0 0.0
1.900000 0.0 0.0
1.905000 0.0 0.0
1.910000 0.0 0.0
1.915000 0.0 0.0
1.920000 0.0 0.0
1.925000 0.0 0.0
1.930000 0.0 0.0
1.935000 0.0 0.0
1.940000 0.0 0.0
1.945000 0.0 0.0
1.950000 0.0 0.0
1.955000 0.0 0.0
1.960000 0.0 0.0
1.965000 0.0 0.0
1.970000 0.0 0.0
1.975000 0.0 0.0
1.980000 0.0 0.0
1.985000 0.0 0.0
1.990000 0.0 0.0
1.995000 0.0 0.0
2.000000 0.0 0.0
2.005000 0.0 0.0
2.010000 0.0 0.0
2.015000 0.0 0.0
2.020000 0.0 0.0
2.025000 0.0 0.0
2.030000 0.0 0.0
2.035000 0.0 0.0
2.040000 0.0 0.0
2.045000 0.0 0.0
2.050000 0.0 0.0
2.055000 0.0 0.0
2.060000 0.0 0.0
2.065000 0.0 0.0
2.070000 0.0 0.0
2.075000 0.0 0.0
2.080000 0.0 0.0
2.085000 0.0 0.0
2.090000 0.0 0.0
2.095000 0.0 0.0
2.100000 0.0 0.0
2.105000 0.0 0.0
2.110000 0.0 0.0
2.115000 0.0 0.0
2.120000 0.0 0.0
2.125000 0.0 0.0
2.130000 0.0 0.0
2.135000 0.0 0.0
2.140000 0.0 0.0
2.145000 0.0 0.0
2.150000 0.0 0.0
2.155000 0.0 0.0
2.160000 0.0 0.0
2.165000 0.0 0.0
2.170000 0.0 0.0
2.175000 0.0 0.0
2.180000 0.0 0.0
2.185000 0.0 0.0
2.190000 0.0 0.0
2.195000 0.0 0.0
2.200000 0.0 0.0
2.205000 0.0 0.0
2.210000 0.0 0.0
2.215000 0.0 0.0
2.220000 0.0 0.0
2.225000 0.0 0.0
2.230000 0.0 0.0
2.235000 0.0 0.0
2.240000 0.0 0.0
2.245000 0.0 0.0
2.250000 0.0 0.0
2.255000 0.0 0.0
2.260000 0.0 0.0
2.265000 0.0 0.0
2.270000 0.0 0.0
2.275000 0.0 0.0
2.280000 0.0 0.0
2.285000 0.0 0.0
2.290000 0.0 0.0
2.295000 0.0 0.0
2.300000 0.0 0.0
2.305000 0.0 0.0
2.310000 0.0 0.0
2.315000 0.0 0.0
2.320000 0.0 0.0
2.325000 0.0 0.0
2.330000 0.0 0.0
2.335000 0.0 0.0
2.340000 0.0 0.0
2.345000 0.0 0.0
2.350000 0.0 0.0
2.355000 0.0 0.0
2.360000 0.0 0.0
2.365000 0.0 0.0
2.370000 0.0 0.0
2.375000 0.0 0.0
2.380000 0.0 0.0
2.385000 0.0 0.0
2.390000 0.0 0.0
2.395000 0.0 0.0
2.400000 0.0 0.0
2.405000 0.0 0.0
2.410000 0.0 0.0
2.415000 0.0 0.0
2.420000 0.0 0.0
2.425000 0.0 0.0
2.430000 0.0 0.0
2.435000 0.0 0.0
2.440000 0.0 0.0
2.445000 0.0 0.0
2.450000 0.0 0.0
2.455000 0.0 0.0
2.460000 0.0 0.0
2.465000 0.0 0.0
2.470000 0.0 0.0
2.475000 0.0 0.0
2.480000 0.0 0.0
2.485000 0.0 0.0
2.490000 0.0 0.0
2.495000 0.0 0.0
2.500000 0.0 0.0
2.505000 0.0 0.0
2.510000 0.0 0.0
2.515000 0.0 0.0
2.520000 0.0 0.0
2.525000 0.0 0.0
2.530000 0.0 0.0
2.535000 0.0 0.0
2.540000 0.0 0.0
2.545000 0.0 0.0
2.550000 0.0 0.0
2.555000 0.0 0.0
2.560000 0.0 0.0
2.565000 0.0 0.0
2.570000 0.0 0.0
2.575000 0.0 0.0
2.580000 0.0 0.0
2.585000 0.0 0.0
2.590000 0.0 0.0
2.595000 0.0 0.0
2.600000 0.0 0.0
2.605000 0.0 0.0
2.610000 0.0 0.0
2.615000 0.0 0.0
2.620000 0.0 0.0
2.625000 0.0 0.0
2.630000 0.0 0.0
2.635000 0.0 0.0
2.640000 0.0 0.0
2.645000 0.0 0.0
2.650000 0.0 0.0
2.655000 0.0 0.0
2.660000 0.0 0.0
2.665000 0.0 0.0
2.670000 0.0 0.0
2.675000 0.0 0.0
2.680000 0.0 0.0
2.685000 0.0 0.0
2.690000 0.0 0.0
2.695000 0.0 0.0
2.700000 0.0 0.0
2.705000 0.0 0.0
2.710000 0.0 0.0
2.715000 0.0 0.0
2.720000 0.0 0.0
2.725000 0.0 0.0
2.730000 0.0 0.0
2.735000 0.0 0.0
2.740000 0.0 0.0
2.745000 0.0 0.0
2.750000 0.0 0.0
2.755000 0.0 0.0
2.760000 0.0 0.0
2.765000 0.0 0.0
2.770000 0.0 0.0
2.775000 0.0 0.0
2.780000 0.0 0.0
2.785000 0.0 0.0
2.790000 0.0 0.0
2.795000 0.0 0.0
2.800000 0.0 0.0
2.805000 0.0 0.0
2.810000 0.0 0.0
2.815000 0.0 0.0
2.820000 0.0 0.0
2.825000 0.0 0.0
2.830000 0.0 0.0
2.835000 0.0 0.0
2.840000 0.0 0.0
2.845000 0.0 0.0
2.850000 0.0 0.0
2.855000 0.0 0.0
2.860000 0.0 0.0
[...]
      <PointData Scalars="Temperature">
        <DataArray type="Float32" Name="Temperature" format="ascii">
308.150000
307.095984
306.042235
304.989023
303.936614
302.885275
301.835271
300.786869
299.740332
298.695921
297.653898
296.614522
295.578049
294.544734
293.514829
292.488584
291.466246
290.448058
289.434261
288.425093
287.420788
286.421577
285.427685
284.439337
283.456752
282.480146
281.509730
280.545714
279.588302
278.637696
277.694097
276.757702
275.828707
274.907523
274.012186
273.390092
273.116143
272.961026
272.849698
272.759526
272.681394
272.610829
272.545340
272.483410
272.424057
272.366616
272.310623
272.255743
272.201730
272.148402
272.095622
272.043286
271.991316
271.939649
271.888239
271.837051
271.786056
271.735234
271.684568
271.634045
271.583657
271.533395
271.483256
271.433235
271.383329
271.333536
271.283857
271.234289
271.184833
271.135489
271.086258
271.037140
270.988135
270.939246
270.890473
270.841817
270.793279
270.744861
270.696563
270.648387
270.600334
270.552406
270.504603
270.456928
270.409380
270.361963
270.314676
270.267521
270.220499
270.173611
270.126860
270.080245
270.033769
269.987431
269.941235
269.895180
269.849267
269.803499
269.757876
269.712398
269.667069
269.621887
269.576855
269.531973
269.487243
269.442666
269.398242
269.353972
269.309858
269.265901
269.222101
269.178460
269.134978
269.091656
269.048495
269.005497
268.962661
268.919989
268.877482
268.835141
268.792965
268.750957
268.709117
268.667445
268.625942
268.584610
268.543449
268.502459
268.461642
268.420997
268.380526
268.340230
268.300108
268.260162
268.220392
268.180798
268.141382
268.102144
268.063085
268.024204
267.985503
267.946981
267.908640
267.870481
267.832502
267.794706
267.757091
267.719660
267.682411
267.645346
267.608465
267.571768
267.535255
267.498928
267.462785
267.426829
267.391057
267.355472
267.320074
267.284861
267.249836
267.214997
267.180346
267.145882
267.111606
267.077517
267.043616
267.009903
266.976378
266.943042
266.909893
266.876933
266.844161
266.811578
266.779183
266.746977
266.714960
266.683130
266.651490
266.620037
266.588774
266.557698
266.526811
266.496112
266.465601
266.435278
266.405143
266.375196
266.345436
266.315864
266.286479
266.257281
266.228271
266.199446
266.170809
266.142357
266.114092
266.086012
266.058118
266.030409
266.002885
265.975546
265.948391
265.921420
265.894633
265.868030
265.841609
265.815371
265.789315
265.763441
265.737749
265.712238
265.686908
265.661758
265.636788
265.611997
265.587385
265.562952
265.538697
265.514620
265.490720
265.466996
265.443449
265.420077
265.396880
265.373858
265.351011
265.328336
265.305835
265.283506
265.261349
265.239363
265.217548
265.195903
265.174428
265.153121
265.131983
265.111013
265.090210
265.069573
265.049102
265.028797
265.008656
264.988679
264.968865
264.949214
264.929724
264.910396
264.891229
264.872221
264.853372
264.834683
264.816150
264.797775
264.779557
264.761494
264.743586
264.725832
264.708232
264.690784
264.673488
264.656344
264.639350
264.622507
264.605812
264.589265
264.572866
264.556614
264.540507
264.524546
264.508729
264.493056
264.477526
264.462138
264.446892
264.431785
264.416819
264.401992
264.387302
264.372751
264.358335
264.344056
264.329911
264.315901
264.302024
264.288280
264.274667
264.261186
264.247834
264.234612
264.221518
264.208552
264.195713
264.183000
264.170413
264.157950
264.145610
264.133393
264.121299
264.109325
264.097472
264.085739
264.074124
264.062627
264.051248
264.039984
264.028837
264.017803
264.006884
263.996078
263.985384
263.974801
263.964330
263.953967
263.943714
263.933570
263.923532
263.913601
263.903776
263.894056
263.884440
263.874928
263.865518
263.856210
263.847003
263.837896
263.828888
263.819980
263.811169
263.802455
263.793837
263.785315
263.776888
263.768554
263.760314
263.752166
263.744110
263.736145
263.728270
263.720484
263.712787
263.705177
263.697655
263.690219
263.682869
263.675603
263.668422
263.661324
263.654308
263.647375
263.640522
263.633751
263.627058
263.620445
263.613910
263.607453
263.601073
263.594769
263.588540
263.582386
263.576306
263.570299
263.564365
263.558503
263.552713
263.546993
263.541343
263.535762
263.530250
263.524805
263.519428
263.514118
263.508874
263.503695
263.498581
263.493530
263.488544
263.483619
263.478758
263.473957
263.469218
263.464538
263.459919
263.455358
263.450856
263.446412
263.442025
263.437694
263.433420
263.429201
263.425037
263.420927
263.416871
263.412868
263.408918
263.405020
263.401173
263.397377
263.393632
263.389936
263.386289
263.382692
263.379142
263.375640
263.372185
263.368777
263.365415
263.362099
263.358827
263.355600
263.352417
263.349278
263.346182
263.343128
263.340116
263.337146
263.334217
263.331329
263.328481
263.325672
263.322903
263.320172
263.317480
263.314826
263.312209
263.309629
263.307085
263.304578
263.302106
263.299670
263.297268
263.294901
263.292568
263.290268
263.288002
263.285768
263.283566
263.281397
263.279259
263.277152
263.275076
263.273030
263.271014
263.269028
263.267071
263.265143
263.263244
263.261372
263.259529
263.257713
263.255924
263.254161
263.252425
263.250716
263.249031
263.247373
263.245739
263.244130
263.242546
263.240985
263.239448
263.237935
263.236445
263.234978
263.233533
263.232110
263.230710
263.229331
263.227973
263.226637
263.225321
263.224026
263.222750
263.221495
263.220260
263.219044
263.217847
263.216668
263.215509
263.214368
263.213245
263.212139
263.211052
263.209981
263.208928
263.207892
263.206872
263.205868
263.204881
263.203910
263.202954
263.202014
263.201089
263.200179
263.199284
263.198404
263.197537
263.196686
263.195848
263.195023
263.194213
263.193416
263.192632
263.191860
263.191102
263.190356
263.189623
263.188902
263.188193
263.187496
263.186811
263.186137
263.185474
263.184823
263.184182
263.183553
263.182934
263.182325
263.181727
263.181139
263.180562
263.179994
263.179435
263.178887
263.178348
263.177818
263.177297
263.176785
263.176282
263.175788
263.175302
263.174825
263.174356
263.173896
263.173443
263.172999
263.172562
263.172132
263.171711
263.171297
263.170890
263.170490
263.170098
263.169712
263.169333
263.168961
263.168596
263.168237
263.167885
263.167539
263.167199
263.166865
263.166537
263.166216
263.165900
263.165589
263.165285
263.164986
263.164692
263.164404
263.164121
263.163843
263.163570
263.163302
263.163040
263.162782
263.162528
263.162280
263.162036
263.161797
263.161562
263.161331
263.161105
263.160883
263.160665
263.160451
263.160241
263.160035
263.159833
263.159635
263.159440
263.159249
263.159062
263.158878
263.158698
263.158522
263.158348
263.158178
263.158011
263.157847
263.157687
263.157529
263.157375
263.157224
263.157075
263.156929
263.156786
263.156646
263.156509
263.156374
263.156242
263.156113
263.155986
263.155861
263.155739
263.155619
263.155502
263.155387
263.155274
263.155164
263.155055
263.154949
263.154845
263.154743
263.154643
263.154545
263.154448
263.154354
263.154262
263.154171
263.154083
263.153996
263.153911
263.153827
263.153746
263.153665
263.153587
263.153510
263.153435
263.153361
263.153288
263.153218
263.153148
263.153080
263.153014
263.152948
263.152884
263.152822
263.152760
263.152700
263.152641
263.152584
263.152527
263.152472
263.152418
263.152365
263.152313
263.152262
263.152212
263.152164
263.152116
263.152069
263.152024
263.151979
263.151935
263.151892
263.151850
263.151809
263.151768
263.151729
263.151690
263.151653
263.151616
263.151579
263.151544
263.151509
263.151475
263.151442
263.151410
263.151378
263.151347
263.151316
263.151286
263.151257
263.151228
263.151200
263.151173
263.151146
263.151120
263.151095
263.151069
263.151045
263.151021
263.150997
263.150974
263.150952
263.150930
263.150909
263.150887
263.150867
263.150847
263.150827
263.150808
263.150789
263.150771
263.150752
263.150735
263.150718
263.150701
263.150684
263.150668
263.150652
263.150637
263.150622
263.150607
263.150593
263.150578
263.150565
263.150551
263.150538
263.150525
263.150512
263.150500
263.150488
263.150476
263.150464
263.150453
263.150442
263.150431
263.150421
263.150410
263.150400
263.150390
263.150381
263.150371
263.150362
263.150353
263.150344
263.150335
263.150327
263.150319
263.150310
263.150302
263.150295
263.150287
263.150280
263.150272
263.150265
263.150258
263.150251
263.150245
263.150238
263.150232
263.150226
263.150219
263.150213
263.150208
263.150202
263.150196
263.150191
263.150185
263.150180
263.150175
263.150169
263.150164
263.150160
263.150155
263.150150
263.150145
263.150141
263.150136
263.150132
263.150128
263.150123
263.150119
263.150115
263.150111
263.150107
263.150103
263.150099
263.150096
263.150092
263.150088
263.150085
263.150081
263.150078
263.150074
263.150071
263.150067
263.150064
263.150061
263.150057
263.150054
263.150051
263.150048
263.150045
263.150042
263.150039
263.150036
263.150032
263.150029
263.150026
263.150023
263.150021
263.150018
263.150015
263.150012
263.150009
263.150006
263.150003
263.150000
        </DataArray>
      </PointData>
      <CellData>
      </CellData>
    </Piece>
  </UnstructuredGrid>
</VTKFile>
