<?xml version="1.0"?>
<VTKFile type="UnstructuredGrid" version="0.1" byte_order="LittleEndian">
  <UnstructuredGrid>
    <Piece NumberOfPoints="801" NumberOfCells="800">
      <Points>
        <DataArray type="Float32" NumberOfComponents="3" format="ascii">
0.000000 0.0 0.0
0.005000 0.0 0.0
0.010000 0.0 0.0
0.015000 0.0 0.0
0.020000 0.0 0.0
0.025000 0.0 0.0
0.030000 0.0 0.0
0.035000 0.0 0.0
0.040000 0.0 0.0
0.045000 0.0 0.0
0.050000 0.0 0.0
0.055000 0.0 0.0
0.060000 0.0 0.0
0.065000 0.0 0.0
0.070000 0.0 0.0
0.075000 0.0 0.0
0.080000 0.0 0.0
0.085000 0.0 0.0
0.090000 0.0 0.0
0.095000 0.0 0.0
0.100000 0.0 0.0
0.105000 0.0 0.0
0.110000 0.0 0.0
0.115000 0.0 0.0
0.120000 0.0 0.0
0.125000 0.0 0.0
0.130000 0.0 0.0
0.135000 0.0 0.0
0.140000 0.0 0.0
0.145000 0.0 0.0
0.150000 0.0 0.0
0.155000 0.0 0.0
0.160000 0.0 0.0
0.165000 0.0 0.0
0.170000 0.0 0.0
0.175000 0.0 0.0
0.180000 0.0 0.0
0.185000 0.0 0.0
0.190000 0.0 0.0
0.195000 0.0 0.0
0.200000 0.0 0.0
0.205000 0.0 0.0
0.210000 0.0 0.0
0.215000 0.0 0.0
0.220000 0.0 0.0
0.225000 0.0 0.0
0.230000 0.0 0.0
0.235000 0.0 0.0
0.240000 0.0 0.0
0.245000 0.0 0.0
0.250000 0.0 0.0
0.255000 0.0 0.0
0.260000 0.0 0.0
0.265000 0.0 0.0
0.270000 0.0 0.0
0.275000 0.0 0.0
0.280000 0.0 0.0
0.285000 0.0 0.0
0.290000 0.0 0.0
0.295000 0.0 0.0
0.300000 0.0 0.0
0.305000 0.0 0.0
0.310000 0.0 0.0
0.315000 0.0 0.0
0.320000 0.0 0.0
0.325000 0.0 0.0
0.330000 0.0 0.0
0.335000 0.0 0.0
0.340000 0.0 0.0
0.345000 0.0 0.0
0.350000 0.0 0.0
0.355000 0.0 0.0
0.360000 0.0 0.0
0.365000 0.0 0.0
0.370000 0.0 0.0
0.375000 0.0 0.0
0.380000 0.0 0.0
0.385000 0.0 0.0
0.390000 0.0 0.0
0.395000 0.0 0.0
0.400000 0.0 0.0
0.405000 0.0 0.0
0.410000 0.0 0.0
0.415000 0.0 0.0
0.420000 0.0 0.0
0.425000 0.0 0.0
0.430000 0.0 0.0
0.435000 0.0 0.0
0.440000 0.0 0.0
0.445000 0.0 0.0
0.450000 0.0 0.0
0.455000 0.0 0.0
0.460000 0.0 0.0
0.465000 0.0 0.0
0.470000 0.0 0.0
0.475000 0.0 0.0
0.480000 0.0 0.0
0.485000 0.0 0.0
0.490000 0.0 0.0
0.495000 0.0 0.0
0.500000 0.0 0.0
0.505000 0.0 0.0
0.510000 0.0 0.0
0.515000 0.0 0.0
0.520000 0.0 0.0
0.525000 0.0 0.0
0.530000 0.0 0.0
0.535000 0.0 0.0
0.540000 0.0 0.0
0.545000 0.0 0.0
0.550000 0.0 0.0
0.555000 0.0 0.0
0.560000 0.0 0.0
0.565000 0.0 0.0
0.570000 0.0 0.0
0.575000 0.0 0.0
0.580000 0.0 0.0
0.585000 0.0 0.0
0.590000 0.0 0.0
0.595000 0.0 0.0
0.600000 0.0 0.0
0.605000 0.0 0.0
0.610000 0.0 0.0
0.615000 0.0 0.0
0.620000 0.0 0.0
0.625000 0.0 0.0
0.630000 0.0 0.0
0.635000 0.0 0.0
0.640000 0.0 0.0
0.645000 0.0 0.0
0.650000 0.0 0.0
0.655000 0.0 0.0
0.660000 0.0 0.0
0.665000 0.0 0.0
0.670000 0.0 0.0
0.675000 0.0 0.0
0.680000 0.0 0.0
0.685000 0.0 0.0
0.690000 0.0 0.0
0.695000 0.0 0.0
0.700000 0.0 0.0
0.705000 0.0 0.0
0.710000 0.0 0.0
0.715000 0.0 0.0
0.720000 0.0 0.0
0.725000 0.0 0.0
0.730000 0.0 0.0
0.735000 0.0 0.0
0.740000 0.0 0.0
0.745000 0.0 0.0
0.750000 0.0 0.0
0.755000 0.0 0.0
0.760000 0.0 0.0
0.765000 0.0 0.0
0.770000 0.0 0.0
0.775000 0.0 0.0
0.780000 0.0 0.0
0.785000 0.0 0.0
0.790000 0.0 0.0
0.795000 0.0 0.0
0.800000 0.0 0.0
0.805000 0.0 0.0
0.810000 0.0 0.0
0.815000 0.0 0.0
0.820000 0.0 0.0
0.825000 0.0 0.0
0.830000 0.0 0.0
0.835000 0.0 0.0
0.840000 0.0 0.0
0.845000 0.0 0.0
0.850000 0.0 0.0
0.855000 0.0 0.0
0.860000 0.0 0.0
0.865000 0.0 0.0
0.870000 0.0 0.0
0.875000 0.0 0.0
0.880000 0.0 0.0
0.885000 0.0 0.0
0.890000 0.0 0.0
0.895000 0.0 0.0
0.900000 0.0 0.0
0.905000 0.0 0.0
0.910000 0.0 0.0
0.915000 0.0 0.0
0.920000 0.0 0.0
0.925000 0.0 0.0
0.930000 0.0 0.0
0.935000 0.0 0.0
0.940000 0.0 0.0
0.945000 0.0 0.0
0.950000 0.0 0.0
0.955000 0.0 0.0
0.960000 0.0 0.0
0.965000 0.0 0.0
0.970000 0.0 0.0
0.975000 0.0 0.0
0.980000 0.0 0.0
0.985000 0.0 0.0
0.990000 0.0 0.0
0.995000 0.0 0.0
1.000000 0.0 0.0
1.005000 0.0 0.0
1.010000 0.0 0.0
1.015000 0.0 0.0
1.020000 0.0 0.0
1.025000 0.0 0.0
1.030000 0.0 0.0
1.035000 0.0 0.0
1.040000 0.0 0.0
1.045000 0.0 0.0
1.050000 0.0 0.0
1.055000 0.0 0.0
1.060000 0.0 0.0
1.065000 0.0 0.0
1.070000 0.0 0.0
1.075000 0.0 0.0
1.080000 0.0 0.0
1.085000 0.0 0.0
1.090000 0.0 0.0
1.095000 0.0 0.0
1.100000 0.0 0.0
1.105000 0.0 0.0
1.110000 0.0 0.0
1.115000 0.0 0.0
1.120000 0.0 0.0
1.125000 0.0 0.0
1.130000 0.0 0.0
1.135000 0.0 0.0
1.140000 0.0 0.0
1.145000 0.0 0.0
1.150000 0.0 0.0
1.155000 0.0 0.0
1.160000 0.0 0.0
1.165000 0.0 0.0
1.170000 0.0 0.0
1.175000 0.0 0.0
1.180000 0.0 0.0
1.185000 0.0 0.0
1.190000 0.0 0.0
1.195000 0.0 0.0
1.200000 0.0 0.0
1.205000 0.0 0.0
1.210000 0.0 0.0
1.215000 0.0 0.0
1.220000 0.0 0.0
1.225000 0.0 0.0
1.230000 0.0 0.0
1.235000 0.0 0.0
1.240000 0.0 0.0
1.245000 0.0 0.0
1.250000 0.0 0.0
1.255000 0.0 0.0
1.260000 0.0 0.0
1.265000 0.0 0.0
1.270000 0.0 0.0
1.275000 0.0 0.0
1.280000 0.0 0.0
1.285000 0.0 0.0
1.290000 0.0 0.0
1.295000 0.0 0.0
1.300000 0.0 0.0
1.305000 0.0 0.0
1.310000 0.0 0.0
1.315000 0.0 0.0
1.320000 0.0 0.0
1.325000 0.0 0.0
1.330000 0.0 0.0
1.335000 0.0 0.0
1.340000 0.0 0.0
1.345000 0.0 0.0
1.350000 0.0 0.0
1.355000 0.0 0.0
1.360000 0.0 0.0
1.365000 0.0 0.0
1.370000 0.0 0.0
1.375000 0.0 0.0
1.380000 0.0 0.0
1.385000 0.0 0.0
1.390000 0.0 0.0
1.395000 0.0 0.0
1.400000 0.0 0.0
1.405000 0.0 0.0
1.410000 0.0 0.0
1.415000 0.0 0.0
1.420000 0.0 0.0
1.425000 0.0 0.0
1.430000 0.0 0.0
1.435000 0.0 0.0
1.440000 0.0 0.0
1.445000 0.0 0.0
1.450000 0.0 0.0
1.455000 0.0 0.0
1.460000 0.0 0.0
1.465000 0.0 0.0
1.470000 0.0 0.0
1.475000 0.0 0.0
1.480000 0.0 0.0
1.485000 0.0 0.0
1.490000 0.0 0.0
1.495000 0.0 0.0
1.500000 0.0 0.0
1.505000 0.0 0.0
1.510000 0.0 0.0
1.515000 0.0 0.0
1.520000 0.0 0.0
1.525000 0.0 0.0
1.530000 0.0 0.0
1.535000 0.0 0.0
1.540000 0.0 0.0
1.545000 0.0 0.0
1.550000 0.0 0.0
1.555000 0.0 0.0
1.560000 0.0 0.0
1.565000 0.0 0.0
1.570000 0.0 0.0
1.575000 0.0 0.0
1.580000 0.0 0.0
1.585000 0.0 0.0
1.590000 0.0 0.0
1.595000 0.0 0.0
1.600000 0.0 0.0
1.605000 0.0 0.0
1.610000 0.0 0.0
1.615000 0.0 0.0
1.620000 0.0 0.0
1.625000 0.0 0.0
1.630000 0.0 0.0
1.635000 0.0 0.0
1.640000 0.0 0.0
1.645000 0.0 0.0
1.650000 0.0 0.0
1.655000 0.0 0.0
1.660000 0.0 0.0
1.665000 0.0 0.0
1.670000 0.0 0.0
1.675000 0.0 0.0
1.680000 0.0 0.0
1.685000 0.0 0.0
1.690000 0.0 0.0
1.695000 0.0 0.0
1.700000 0.0 0.0
1.705000 0.0 0.0
1.710000 0.0 0.0
1.715000 0.0 0.0
1.720000 0.0 0.0
1.725000 0.0 0.0
1.730000 0.0 0.0
1.735000 0.0 0.0
1.740000 0.0 0.0
1.745000 0.0 0.0
1.750000 0.0 0.0
1.755000 0.0 0.0
1.760000 0.0 0.0
1.765000 0.0 0.0
1.770000 0.0 0.0
1.775000 0.0 0.0
1.780000 0.0 0.0
1.785000 0.0 0.0
1.790000 0.0 0.0
1.795000 0.0 0.0
1.800000 0.0 0.0
1.805000 0.0 0.0
1.810000 0.0 0.0
1.815000 0.0 0.0
1.820000 0.0 0.0
1.825000 0.0 0.0
1.830000 0.0 0.0
1.835000 0.0 0.0
1.840000 0.0 0.0
1.845000 0.0 0.0
1.850000 0.0 0.0
1.855000 0.0 0.0
1.860000 0.0 0.0
1.865000 0.0 0.0
1.870000 0.0 0.0
1.875000 0.0 0.0
1.880000 0.0 0.0
1.885000 0.0 0.0
1.890000 0.0 0.0
1.895000 0.0 0.0
1.900000 0.0 0.0
1.905000 0.0 0.0
1.910000 0.0 0.0
1.915000 0.0 0.0
1.920000 0.0 0.0
1.925000 0.0 0.0
1.930000 0.0 0.0
1.935000 0.0 0.0
1.940000 0.0 0.0
1.945000 0.0 0.0
1.950000 0.0 0.0
1.955000 0.0 0.0
1.960000 0.0 0.0
1.965000 0.0 0.0
1.970000 0.0 0.0
1.975000 0.0 0.0
1.980000 0.0 0.0
1.985000 0.0 0.0
1.990000 0.0 0.0
1.995000 0.0 0.0
2.000000 0.0 0.0
2.005000 0.0 0.0
2.010000 0.0 0.0
2.015000 0.0 0.0
2.020000 0.0 0.0
2.025000 0.0 0.0
2.030000 0.0 0.0
2.035000 0.0 0.0
2.040000 0.0 0.0
2.045000 0.0 0.0
2.050000 0.0 0.0
2.055000 0.0 0.0
2.060000 0.0 0.0
2.065000 0.0 0.0
2.070000 0.0 0.0
2.075000 0.0 0.0
2.080000 0.0 0.0
2.085000 0.0 0.0
2.090000 0.0 0.0
2.095000 0.0 0.0
2.100000 0.0 0.0
2.105000 0.0 0.0
2.110000 0.0 0.0
2.115000 0.0 0.0
2.120000 0.0 0.0
2.125000 0.0 0.0
2.130000 0.0 0.0
2.135000 0.0 0.0
2.140000 0.0 0.0
2.145000 0.0 0.0
2.150000 0.0 0.0
2.155000 0.0 0.0
2.160000 0.0 0.0
2.165000 0.0 0.0
2.170000 0.0 0.0
2.175000 0.0 0.0
2.180000 0.0 0.0
2.185000 0.0 0.0
2.190000 0.0 0.0
2.195000 0.0 0.0
2.200000 0.0 0.0
2.205000 0.0 0.0
2.210000 0.0 0.0
2.215000 0.0 0.0
2.220000 0.0 0.0
2.225000 0.0 0.0
2.230000 0.0 0.0
2.235000 0.0 0.0
2.240000 0.0 0.0
2.245000 0.0 0.0
2.250000 0.0 0.0
2.255000 0.0 0.0
2.260000 0.0 0.0
2.265000 0.0 0.0
2.270000 0.0 0.0
2.275000 0.0 0.0
2.280000 0.0 0.0
2.285000 0.0 0.0
2.290000 0.0 0.0
2.295000 0.0 0.0
2.300000 0.0 0.0
2.305000 0.0 0.0
2.310000 0.0 0.0
2.315000 0.0 0.0
2.320000 0.0 0.0
2.325000 0.0 0.0
2.330000 0.0 0.0
2.335000 0.0 0.0
2.340000 0.0 0.0
2.345000 0.0 0.0
2.350000 0.0 0.0
2.355000 0.0 0.0
2.360000 0.0 0.0
2.365000 0.0 0.0
2.370000 0.0 0.0
2.375000 0.0 0.0
2.380000 0.0 0.0
2.385000 0.0 0.0
2.390000 0.0 0.0
2.395000 0.0 0.0
2.400000 0.0 0.0
2.405000 0.0 0.0
2.410000 0.0 0.0
2.415000 0.0 0.0
2.420000 0.0 0.0
2.425000 0.0 0.0
2.430000 0.0 0.0
2.435000 0.0 0.0
2.440000 0.0 0.0
2.445000 0.0 0.0
2.450000 0.0 0.0
2.455000 0.0 0.0
2.460000 0.0 0.0
2.465000 0.0 0.0
2.470000 0.0 0.0
2.475000 0.0 0.0
2.480000 0.0 0.0
2.485000 0.0 0.0
2.490000 0.0 0.0
2.495000 0.0 0.0
2.500000 0.0 0.0
2.505000 0.0 0.0
2.510000 0.0 0.0
2.515000 0.0 0.0
2.520000 0.0 0.0
2.525000 0.0 0.0
2.530000 0.0 0.0
2.535000 0.0 0.0
2.540000 0.0 0.0
2.545000 0.0 0.0
2.550000 0.0 0.0
2.555000 0.0 0.0
2.560000 0.0 0.0
2.565000 0.0 0.0
2.570000 0.0 0.0
2.575000 0.0 0.0
2.580000 0.0 0.0
2.585000 0.0 0.0
2.590000 0.0 0.0
2.595000 0.0 0.0
2.600000 0.0 0.0
2.605000 0.0 0.0
2.610000 0.0 0.0
2.615000 0.0 0.0
2.620000 0.0 0.0
2.625000 0.0 0.0
2.630000 0.0 0.0
2.635000 0.0 0.0
2.640000 0.0 0.0
2.645000 0.0 0.0
2.650000 0.0 0.0
2.655000 0.0 0.0
2.660000 0.0 0.0
2.665000 0.0 0.0
2.670000 0.0 0.0
2.675000 0.0 0.0
2.680000 0.0 0.0
2.685000 0.0 0.0
2.690000 0.0 0.0
2.695000 0.0 0.0
2.700000 0.0 0.0
2.705000 0.0 0.0
2.710000 0.0 0.0
2.715000 0.0 0.0
2.720000 0.0 0.0
2.725000 0.0 0.0
2.730000 0.0 0.0
2.735000 0.0 0.0
2.740000 0.0 0.0
2.745000 0.0 0.0
2.750000 0.0 0.0
2.755000 0.0 0.0
2.760000 0.0 0.0
2.765000 0.0 0.0
2.770000 0.0 0.0
2.775000 0.0 0.0
2.780000 0.0 0.0
2.785000 0.0 0.0
2.790000 0.0 0.0
2.795000 0.0 0.0
2.800000 0.0 0.0
2.805000 0.0 0.0
2.810000 0.0 0.0
2.815000 0.0 0.0
2.820000 0.0 0.0
2.825000 0.0 0.0
2.830000 0.0 0.0
2.835000 0.0 0.0
2.840000 0.0 0.0
2.845000 0.0 0.0
2.850000 0.0 0.0
2.855000 0.0 0.0
2.860000 0.0 0.0
[...]
      <PointData Scalars="Temperature">
        <DataArray type="Float32" Name="Temperature" format="ascii">
308.150000
307.126476
306.103197
305.080410
304.058361
303.037293
302.017452
300.999080
299.982420
298.967712
297.955197
296.945112
295.937694
294.933177
293.931793
292.933772
291.939342
290.948728
289.962153
288.979836
288.001993
287.028839
286.060583
285.097433
284.139594
283.187265
282.240645
281.299927
280.365304
279.436963
278.515091
277.599871
276.691485
275.790115
274.896159
274.025903
273.406174
273.128633
272.972583
272.861359
272.771741
272.694406
272.624794
272.560368
272.499587
272.441451
272.385285
272.330613
272.277094
272.224475
272.172569
272.121235
272.070364
272.019873
271.969698
271.919790
271.870111
271.820629
271.771323
271.722175
271.673170
271.624297
271.575550
271.526921
271.478406
271.430002
271.381707
271.333518
271.285434
271.237456
271.189583
271.141815
271.094153
271.046596
270.999147
270.951805
270.904572
270.857449
270.810436
270.763535
270.716746
270.670072
270.623512
270.577069
270.530743
270.484535
270.438447
270.392480
270.346635
270.300913
270.255314
270.209842
270.164495
270.119276
270.074186
270.029225
269.984395
269.939696
269.895131
269.850699
269.806403
269.762242
269.718218
269.674332
269.630585
269.586978
269.543512
269.500187
269.457005
269.413967
269.371073
269.328325
269.285723
269.243268
269.200962
269.158804
269.116796
269.074938
269.033232
268.991678
268.950277
268.909029
268.867936
268.826998
268.786217
268.745591
268.705124
268.664814
268.624663
268.584671
268.544840
268.505169
268.465660
268.426312
268.387127
268.348105
268.309247
268.270553
268.232025
268.193661
268.155463
268.117432
268.079568
268.041871
268.004342
267.966981
267.929789
267.892766
267.855913
267.819230
267.782718
267.746376
267.710205
267.674206
267.638379
267.602724
267.567242
267.531932
267.496796
267.461833
267.427044
267.392429
267.357988
267.323721
267.289629
267.255712
267.221970
267.188403
267.155011
267.121795
267.088755
267.055891
267.023202
266.990690
266.958353
266.926193
266.894210
266.862402
266.830771
266.799317
266.768039
266.736937
266.706012
266.675263
266.644691
266.614296
266.584076
266.554033
266.524166
266.494476
266.464961
266.435623
266.406460
266.377474
266.348662
266.320027
266.291566
266.263281
266.235171
266.207236
266.179475
266.151889
266.124477
266.097239
266.070175
266.043284
266.016567
265.990022
265.963650
265.937451
265.911424
265.885569
265.859885
265.834373
265.809031
265.783860
265.758859
265.734029
265.709367
265.684875
265.660551
265.636396
265.612409
265.588590
265.564937
265.541452
265.518133
265.494979
265.471991
265.449168
265.426510
265.404015
265.381685
265.359517
265.337512
265.315669
265.293988
265.272468
265.251109
265.229909
265.208869
265.187989
265.167266
265.146702
265.126295
265.106045
265.085952
265.066014
265.046231
265.026603
265.007128
264.987807
264.968639
264.949623
264.930759
264.912046
264.893483
264.875070
264.856805
264.838690
264.820722
264.802901
264.785228
264.767699
264.750317
264.733079
264.715984
264.699034
264.682225
264.665559
264.649034
264.632650
264.616405
264.600300
264.584334
264.568505
264.552813
264.537258
264.521839
264.506555
264.491405
264.476389
264.461506
264.446755
264.432136
264.417648
264.403290
264.389061
264.374961
264.360989
264.347144
264.333425
264.319833
264.306366
264.293022
264.279803
264.266706
264.253732
264.240879
264.228147
264.215534
264.203041
264.190667
264.178410
264.166270
264.154246
264.142338
264.130545
264.118866
264.107300
264.095847
264.084505
264.073275
264.062155
264.051145
264.040243
264.029450
264.018764
264.008185
263.997712
263.987344
263.977080
263.966921
263.956864
263.946909
263.937057
263.927304
263.917653
263.908100
263.898646
263.889290
263.880031
263.870869
263.861802
263.852831
263.843953
263.835170
263.826479
263.817880
263.809373
263.800957
263.792630
263.784393
263.776245
263.768185
263.760211
263.752325
263.744524
263.736808
263.729177
263.721629
263.714165
263.706783
263.699483
263.692263
263.685124
263.678065
263.671085
263.664183
263.657359
263.650612
263.643941
263.637346
263.630825
263.624380
263.618008
263.611709
263.605482
263.599327
263.593244
263.587231
263.581288
263.575414
263.569608
263.563871
263.558201
263.552598
263.547061
263.541590
263.536183
263.530841
263.525562
263.520347
263.515194
263.510103
263.505074
263.500105
263.495196
263.490347
263.485557
263.480826
263.476152
263.471536
263.466976
263.462473
263.458025
263.453632
263.449294
263.445010
263.440779
263.436601
263.432476
263.428402
263.424380
263.420409
263.416487
263.412616
263.408794
263.405020
263.401295
263.397617
263.393987
263.390403
263.386866
263.383374
263.379928
263.376526
263.373169
263.369855
263.366585
263.363357
263.360172
263.357029
263.353928
263.350867
263.347848
263.344868
263.341928
263.339027
263.336165
263.333341
263.330555
263.327807
263.325096
263.322422
263.319784
263.317181
263.314614
263.312083
263.309585
263.307123
263.304693
263.302298
263.299935
263.297605
263.295308
263.293042
263.290808
263.288604
263.286432
263.284290
263.282179
263.280096
263.278044
263.276020
263.274025
263.272058
263.270119
263.268208
263.266324
263.264467
263.262637
263.260833
263.259054
263.257302
263.255575
263.253873
263.252195
263.250542
263.248913
263.247308
263.245726
263.244168
263.242632
263.241119
263.239628
263.238159
263.236712
263.235287
263.233882
263.232499
263.231136
263.229794
263.228471
263.227169
263.225886
263.224622
263.223378
263.222152
263.220945
263.219756
263.218586
263.217433
263.216298
263.215180
263.214079
263.212995
263.211928
263.210877
263.209843
263.208825
263.207822
263.206835
263.205863
263.204906
263.203965
263.203038
263.202125
263.201227
263.200344
263.199474
263.198617
263.197775
263.196945
263.196129
263.195326
263.194535
263.193758
263.192992
263.192239
263.191498
263.190769
263.190052
263.189346
263.188652
263.187969
263.187297
263.186636
263.185985
263.185346
263.184716
263.184097
263.183489
263.182890
263.182301
263.181722
263.181152
263.180592
263.180041
263.179499
263.178966
263.178442
263.177927
263.177420
263.176922
263.176432
263.175951
263.175477
263.175012
263.174554
263.174104
263.173662
263.173227
263.172800
263.172380
263.171967
263.171561
263.171162
263.170770
263.170385
263.170006
263.169634
263.169268
263.168908
263.168555
263.168208
263.167867
263.167531
263.167202
263.166879
263.166561
263.166248
263.165941
263.165640
263.165343
263.165052
263.164767
263.164486
263.164210
263.163939
263.163673
263.163411
263.163155
263.162902
263.162655
263.162411
263.162173
263.161938
263.161708
263.161481
263.161259
263.161041
263.160827
263.160616
263.160410
263.160207
263.160008
263.159813
263.159621
263.159432
263.159247
263.159066
263.158888
263.158713
263.158541
263.158372
263.158207
263.158045
263.157885
263.157729
263.157575
263.157425
263.157277
263.157132
263.156989
263.156850
263.156713
263.156578
263.156446
263.156317
263.156190
263.156065
263.155943
263.155823
263.155705
263.155589
263.155476
263.155365
263.155256
263.155149
263.155044
263.154941
263.154840
263.154741
263.154644
263.154549
263.154456
263.154364
263.154274
263.154186
263.154100
263.154015
263.153932
263.153851
263.153771
263.153693
263.153616
263.153541
263.153467
263.153394
263.153324
263.153254
263.153186
263.153119
263.153054
263.152989
263.152926
263.152865
263.152804
263.152745
263.152687
263.152630
263.152574
263.152520
263.152466
263.152414
263.152362
263.152312
263.152262
263.152214
263.152166
263.152120
263.152074
263.152030
263.151986
263.151943
263.151901
263.151860
263.151820
263.151780
263.151742
263.151704
263.151667
263.151630
263.151595
263.151560
263.151525
263.151492
263.151459
263.151427
263.151396
263.151365
263.151335
263.151305
263.151276
263.151248
263.151220
263.151193
263.151166
263.151140
263.151114
263.151089
263.151065
263.151041
263.151017
263.150994
263.150972
263.150950
263.150928
263.150907
263.150886
263.150866
263.150846
263.150826
263.150807
263.150788
263.150770
263.150752
263.150735
263.150717
263.150701
263.150684
263.150668
263.150652
263.150637
263.150621
263.150606
263.150592
263.150578
263.150564
263.150550
263.150536
263.150523
263.150510
263.150498
263.150485
263.150473
263.150461
263.150450
263.150438
263.150427
263.150416
263.150405
263.150395
263.150384
263.150374
263.150364
263.150354
263.150345
263.150335
263.150326
263.150317
263.150308
263.150299
263.150291
263.150282
263.150274
263.150266
263.150258
263.150250
263.150242
263.150235
263.150227
263.150220
263.150212
263.150205
263.150198
263.150191
263.150184
263.150178
263.150171
263.150164
263.150158
263.150152
263.150145
263.150139
263.150133
263.150127
263.150121
263.150115
263.150109
263.150103
263.150098
263.150092
263.150086
263.150081
263.150075
263.150069
263.150064
263.150059
263.150053
263.150048
263.150042
263.150037
263.150032
263.150026
263.150021
263.150016
263.150011
263.150005
263.150000
        </DataArray>
      </PointData>
      <CellData>
      </CellData>
    </Piece>
  </UnstructuredGrid>
</VTKFile>
