<?xml version="1.0"?>
<VTKFile type="UnstructuredGrid" version="0.1" byte_order="LittleEndian">
  <UnstructuredGrid>
    <Piece NumberOfPoints="801" NumberOfCells="800">
      <Points>
        <DataArray type="Float32" NumberOfComponents="3" format="ascii">
0.000000 0.0 0.0
0.005000 0.0 0.0
0.010000 0.0 0.0
0.015000 0.0 0.0
0.020000 0.0 0.0
0.025000 0.0 0.0
0.030000 0.0 0.0
0.035000 0.0 0.0
0.040000 0.0 0.0
0.045000 0.0 0.0
0.050000 0.0 0.0
0.055000 0.0 0.0
0.060000 0.0 0.0
0.065000 0.0 0.0
0.070000 0.0 0.0
0.075000 0.0 0.0
0.080000 0.0 0.0
0.085000 0.0 0.0
0.090000 0.0 0.0
0.095000 0.0 0.0
0.100000 0.0 0.0
0.105000 0.0 0.0
0.110000 0.0 0.0
0.115000 0.0 0.0
0.120000 0.0 0.0
0.125000 0.0 0.0
0.130000 0.0 0.0
0.135000 0.0 0.0
0.140000 0.0 0.0
0.145000 0.0 0.0
0.150000 0.0 0.0
0.155000 0.0 0.0
0.160000 0.0 0.0
0.165000 0.0 0.0
0.170000 0.0 0.0
0.175000 0.0 0.0
0.180000 0.0 0.0
0.185000 0.0 0.0
0.190000 0.0 0.0
0.195000 0.0 0.0
0.200000 0.0 0.0
0.205000 0.0 0.0
0.210000 0.0 0.0
0.215000 0.0 0.0
0.220000 0.0 0.0
0.225000 0.0 0.0
0.230000 0.0 0.0
0.235000 0.0 0.0
0.240000 0.0 0.0
0.245000 0.0 0.0
0.250000 0.0 0.0
0.255000 0.0 0.0
0.260000 0.0 0.0
0.265000 0.0 0.0
0.270000 0.0 0.0
0.275000 0.0 0.0
0.280000 0.0 0.0
0.285000 0.0 0.0
0.290000 0.0 0.0
0.295000 0.0 0.0
0.300000 0.0 0.0
0.305000 0.0 0.0
0.310000 0.0 0.0
0.315000 0.0 0.0
0.320000 0.0 0.0
0.325000 0.0 0.0
0.330000 0.0 0.0
0.335000 0.0 0.0
0.340000 0.0 0.0
0.345000 0.0 0.0
0.350000 0.0 0.0
0.355000 0.0 0.0
0.360000 0.0 0.0
0.365000 0.0 0.0
0.370000 0.0 0.0
0.375000 0.0 0.0
0.380000 0.0 0.0
0.385000 0.0 0.0
0.390000 0.0 0.0
0.395000 0.0 0.0
0.400000 0.0 0.0
0.405000 0.0 0.0
0.410000 0.0 0.0
0.415000 0.0 0.0
0.420000 0.0 0.0
0.425000 0.0 0.0
0.430000 0.0 0.0
0.435000 0.0 0.0
0.440000 0.0 0.0
0.445000 0.0 0.0
0.450000 0.0 0.0
0.455000 0.0 0.0
0.460000 0.0 0.0
0.465000 0.0 0.0
0.470000 0.0 0.0
0.475000 0.0 0.0
0.480000 0.0 0.0
0.485000 0.0 0.0
0.490000 0.0 0.0
0.495000 0.0 0.0
0.500000 0.0 0.0
0.505000 0.0 0.0
0.510000 0.0 0.0
0.515000 0.0 0.0
0.520000 0.0 0.0
0.525000 0.0 0.0
0.530000 0.0 0.0
0.535000 0.0 0.0
0.540000 0.0 0.0
0.545000 0.0 0.0
0.550000 0.0 0.0
0.555000 0.0 0.0
0.560000 0.0 0.0
0.565000 0.0 0.0
0.570000 0.0 0.0
0.575000 0.0 0.0
0.580000 0.0 0.0
0.585000 0.0 0.0
0.590000 0.0 0.0
0.595000 0.0 0.0
0.600000 0.0 0.0
0.605000 0.0 0.0
0.610000 0.0 0.0
0.615000 0.0 0.0
0.620000 0.0 0.0
0.625000 0.0 0.0
0.630000 0.0 0.0
0.635000 0.0 0.0
0.640000 0.0 0.0
0.645000 0.0 0.0
0.650000 0.0 0.0
0.655000 0.0 0.0
0.660000 0.0 0.0
0.665000 0.0 0.0
0.670000 0.0 0.0
0.675000 0.0 0.0
0.680000 0.0 0.0
0.685000 0.0 0.0
0.690000 0.0 0.0
0.695000 0.0 0.0
0.700000 0.0 0.0
0.705000 0.0 0.0
0.710000 0.0 0.0
0.715000 0.0 0.0
0.720000 0.0 0.0
0.725000 0.0 0.0
0.730000 0.0 0.0
0.735000 0.0 0.0
0.740000 0.0 0.0
0.745000 0.0 0.0
0.750000 0.0 0.0
0.755000 0.0 0.0
0.760000 0.0 0.0
0.765000 0.0 0.0
0.770000 0.0 0.0
0.775000 0.0 0.0
0.780000 0.0 0.0
0.785000 0.0 0.0
0.790000 0.0 0.0
0.795000 0.0 0.0
0.800000 0.0 0.0
0.805000 0.0 0.0
0.810000 0.0 0.0
0.815000 0.0 0.0
0.820000 0.0 0.0
0.825000 0.0 0.0
0.830000 0.0 0.0
0.835000 0.0 0.0
0.840000 0.0 0.0
0.845000 0.0 0.0
0.850000 0.0 0.0
0.855000 0.0 0.0
0.860000 0.0 0.0
0.865000 0.0 0.0
0.870000 0.0 0.0
0.875000 0.0 0.0
0.880000 0.0 0.0
0.885000 0.0 0.0
0.890000 0.0 0.0
0.895000 0.0 0.0
0.900000 0.0 0.0
0.905000 0.0 0.0
0.910000 0.0 0.0
0.915000 0.0 0.0
0.920000 0.0 0.0
0.925000 0.0 0.0
0.930000 0.0 0.0
0.935000 0.0 0.0
0.940000 0.0 0.0
0.945000 0.0 0.0
0.950000 0.0 0.0
0.955000 0.0 0.0
0.960000 0.0 0.0
0.965000 0.0 0.0
0.970000 0.0 0.0
0.975000 0.0 0.0
0.980000 0.0 0.0
0.985000 0.0 0.0
0.990000 0.0 0.0
0.995000 0.0 0.0
1.000000 0.0 0.0
1.005000 0.0 0.0
1.010000 0.0 0.0
1.015000 0.0 0.0
1.020000 0.0 0.0
1.025000 0.0 0.0
1.030000 0.0 0.0
1.035000 0.0 0.0
1.040000 0.0 0.0
1.045000 0.0 0.0
1.050000 0.0 0.0
1.055000 0.0 0.0
1.060000 0.0 0.0
1.065000 0.0 0.0
1.070000 0.0 0.0
1.075000 0.0 0.0
1.080000 0.0 0.0
1.085000 0.0 0.0
1.090000 0.0 0.0
1.095000 0.0 0.0
1.100000 0.0 0.0
1.105000 0.0 0.0
1.110000 0.0 0.0
1.115000 0.0 0.0
1.120000 0.0 0.0
1.125000 0.0 0.0
1.130000 0.0 0.0
1.135000 0.0 0.0
1.140000 0.0 0.0
1.145000 0.0 0.0
1.150000 0.0 0.0
1.155000 0.0 0.0
1.160000 0.0 0.0
1.165000 0.0 0.0
1.170000 0.0 0.0
1.175000 0.0 0.0
1.180000 0.0 0.0
1.185000 0.0 0.0
1.190000 0.0 0.0
1.195000 0.0 0.0
1.200000 0.0 0.0
1.205000 0.0 0.0
1.210000 0.0 0.0
1.215000 0.0 0.0
1.220000 0.0 0.0
1.225000 0.0 0.0
1.230000 0.0 0.0
1.235000 0.0 0.0
1.240000 0.0 0.0
1.245000 0.0 0.0
1.250000 0.0 0.0
1.255000 0.0 0.0
1.260000 0.0 0.0
1.265000 0.0 0.0
1.270000 0.0 0.0
1.275000 0.0 0.0
1.280000 0.0 0.0
1.285000 0.0 0.0
1.290000 0.0 0.0
1.295000 0.0 0.0
1.300000 0.0 0.0
1.305000 0.0 0.0
1.310000 0.0 0.0
1.315000 0.0 0.0
1.320000 0.0 0.0
1.325000 0.0 0.0
1.330000 0.0 0.0
1.335000 0.0 0.0
1.340000 0.0 0.0
1.345000 0.0 0.0
1.350000 0.0 0.0
1.355000 0.0 0.0
1.360000 0.0 0.0
1.365000 0.0 0.0
1.370000 0.0 0.0
1.375000 0.0 0.0
1.380000 0.0 0.0
1.385000 0.0 0.0
1.390000 0.0 0.0
1.395000 0.0 0.0
1.400000 0.0 0.0
1.405000 0.0 0.0
1.410000 0.0 0.0
1.415000 0.0 0.0
1.420000 0.0 0.0
1.425000 0.0 0.0
1.430000 0.0 0.0
1.435000 0.0 0.0
1.440000 0.0 0.0
1.445000 0.0 0.0
1.450000 0.0 0.0
1.455000 0.0 0.0
1.460000 0.0 0.0
1.465000 0.0 0.0
1.470000 0.0 0.0
1.475000 0.0 0.0
1.480000 0.0 0.0
1.485000 0.0 0.0
1.490000 0.0 0.0
1.495000 0.0 0.0
1.500000 0.0 0.0
1.505000 0.0 0.0
1.510000 0.0 0.0
1.515000 0.0 0.0
1.520000 0.0 0.0
1.525000 0.0 0.0
1.530000 0.0 0.0
1.535000 0.0 0.0
1.540000 0.0 0.0
1.545000 0.0 0.0
1.550000 0.0 0.0
1.555000 0.0 0.0
1.560000 0.0 0.0
1.565000 0.0 0.0
1.570000 0.0 0.0
1.575000 0.0 0.0
1.580000 0.0 0.0
1.585000 0.0 0.0
1.590000 0.0 0.0
1.595000 0.0 0.0
1.600000 0.0 0.0
1.605000 0.0 0.0
1.610000 0.0 0.0
1.615000 0.0 0.0
1.620000 0.0 0.0
1.625000 0.0 0.0
1.630000 0.0 0.0
1.635000 0.0 0.0
1.640000 0.0 0.0
1.645000 0.0 0.0
1.650000 0.0 0.0
1.655000 0.0 0.0
1.660000 0.0 0.0
1.665000 0.0 0.0
1.670000 0.0 0.0
1.675000 0.0 0.0
1.680000 0.0 0.0
1.685000 0.0 0.0
1.690000 0.0 0.0
1.695000 0.0 0.0
1.700000 0.0 0.0
1.705000 0.0 0.0
1.710000 0.0 0.0
1.715000 0.0 0.0
1.720000 0.0 0.0
1.725000 0.0 0.0
1.730000 0.0 0.0
1.735000 0.0 0.0
1.740000 0.0 0.0
1.745000 0.0 0.0
1.750000 0.0 0.0
1.755000 0.0 0.0
1.760000 0.0 0.0
1.765000 0.0 0.0
1.770000 0.0 0.0
1.775000 0.0 0.0
1.780000 0.0 0.0
1.785000 0.0 0.0
1.790000 0.0 0.0
1.795000 0.0 0.0
1.800000 0.0 0.0
1.805000 0.0 0.0
1.810000 0.0 0.0
1.815000 0.0 0.0
1.820000 0.0 0.0
1.825000 0.0 0.0
1.830000 0.0 0.0
1.835000 0.0 0.0
1.840000 0.0 0.0
1.845000 0.0 0.0
1.850000 0.0 0.0
1.855000 0.0 0.0
1.860000 0.0 0.0
1.865000 0.0 0.0
1.870000 0.0 0.0
1.875000 0.0 0.0
1.880000 0.0 0.0
1.885000 0.0 0.0
1.890000 0.0 0.0
1.895000 0.0 0.0
1.900000 0.0 0.0
1.905000 0.0 0.0
1.910000 0.0 0.0
1.915000 0.0 0.0
1.920000 0.0 0.0
1.925000 0.0 0.0
1.930000 0.0 0.0
1.935000 0.0 0.0
1.940000 0.0 0.0
1.945000 0.0 0.0
1.950000 0.0 0.0
1.955000 0.0 0.0
1.960000 0.0 0.0
1.965000 0.0 0.0
1.970000 0.0 0.0
1.975000 0.0 0.0
1.980000 0.0 0.0
1.985000 0.0 0.0
1.990000 0.0 0.0
1.995000 0.0 0.0
2.000000 0.0 0.0
2.005000 0.0 0.0
2.010000 0.0 0.0
2.015000 0.0 0.0
2.020000 0.0 0.0
2.025000 0.0 0.0
2.030000 0.0 0.0
2.035000 0.0 0.0
2.040000 0.0 0.0
2.045000 0.0 0.0
2.050000 0.0 0.0
2.055000 0.0 0.0
2.060000 0.0 0.0
2.065000 0.0 0.0
2.070000 0.0 0.0
2.075000 0.0 0.0
2.080000 0.0 0.0
2.085000 0.0 0.0
2.090000 0.0 0.0
2.095000 0.0 0.0
2.100000 0.0 0.0
2.105000 0.0 0.0
2.110000 0.0 0.0
2.115000 0.0 0.0
2.120000 0.0 0.0
2.125000 0.0 0.0
2.130000 0.0 0.0
2.135000 0.0 0.0
2.140000 0.0 0.0
2.145000 0.0 0.0
2.150000 0.0 0.0
2.155000 0.0 0.0
2.160000 0.0 0.0
2.165000 0.0 0.0
2.170000 0.0 0.0
2.175000 0.0 0.0
2.180000 0.0 0.0
2.185000 0.0 0.0
2.190000 0.0 0.0
2.195000 0.0 0.0
2.200000 0.0 0.0
2.205000 0.0 0.0
2.210000 0.0 0.0
2.215000 0.0 0.0
2.220000 0.0 0.0
2.225000 0.0 0.0
2.230000 0.0 0.0
2.235000 0.0 0.0
2.240000 0.0 0.0
2.245000 0.0 0.0
2.250000 0.0 0.0
2.255000 0.0 0.0
2.260000 0.0 0.0
2.265000 0.0 0.0
2.270000 0.0 0.0
2.275000 0.0 0.0
2.280000 0.0 0.0
2.285000 0.0 0.0
2.290000 0.0 0.0
2.295000 0.0 0.0
2.300000 0.0 0.0
2.305000 0.0 0.0
2.310000 0.0 0.0
2.315000 0.0 0.0
2.320000 0.0 0.0
2.325000 0.0 0.0
2.330000 0.0 0.0
2.335000 0.0 0.0
2.340000 0.0 0.0
2.345000 0.0 0.0
2.350000 0.0 0.0
2.355000 0.0 0.0
2.360000 0.0 0.0
2.365000 0.0 0.0
2.370000 0.0 0.0
2.375000 0.0 0.0
2.380000 0.0 0.0
2.385000 0.0 0.0
2.390000 0.0 0.0
2.395000 0.0 0.0
2.400000 0.0 0.0
2.405000 0.0 0.0
2.410000 0.0 0.0
2.415000 0.0 0.0
2.420000 0.0 0.0
2.425000 0.0 0.0
2.430000 0.0 0.0
2.435000 0.0 0.0
2.440000 0.0 0.0
2.445000 0.0 0.0
2.450000 0.0 0.0
2.455000 0.0 0.0
2.460000 0.0 0.0
2.465000 0.0 0.0
2.470000 0.0 0.0
2.475000 0.0 0.0
2.480000 0.0 0.0
2.485000 0.0 0.0
2.490000 0.0 0.0
2.495000 0.0 0.0
2.500000 0.0 0.0
2.505000 0.0 0.0
2.510000 0.0 0.0
2.515000 0.0 0.0
2.520000 0.0 0.0
2.525000 0.0 0.0
2.530000 0.0 0.0
2.535000 0.0 0.0
2.540000 0.0 0.0
2.545000 0.0 0.0
2.550000 0.0 0.0
2.555000 0.0 0.0
2.560000 0.0 0.0
2.565000 0.0 0.0
2.570000 0.0 0.0
2.575000 0.0 0.0
2.580000 0.0 0.0
2.585000 0.0 0.0
2.590000 0.0 0.0
2.595000 0.0 0.0
2.600000 0.0 0.0
2.605000 0.0 0.0
2.610000 0.0 0.0
2.615000 0.0 0.0
2.620000 0.0 0.0
2.625000 0.0 0.0
2.630000 0.0 0.0
2.635000 0.0 0.0
2.640000 0.0 0.0
2.645000 0.0 0.0
2.650000 0.0 0.0
2.655000 0.0 0.0
2.660000 0.0 0.0
2.665000 0.0 0.0
2.670000 0.0 0.0
2.675000 0.0 0.0
2.680000 0.0 0.0
2.685000 0.0 0.0
2.690000 0.0 0.0
2.695000 0.0 0.0
2.700000 0.0 0.0
2.705000 0.0 0.0
2.710000 0.0 0.0
2.715000 0.0 0.0
2.720000 0.0 0.0
2.725000 0.0 0.0
2.730000 0.0 0.0
2.735000 0.0 0.0
2.740000 0.0 0.0
2.745000 0.0 0.0
2.750000 0.0 0.0
2.755000 0.0 0.0
2.760000 0.0 0.0
2.765000 0.0 0.0
2.770000 0.0 0.0
2.775000 0.0 0.0
2.780000 0.0 0.0
2.785000 0.0 0.0
2.790000 0.0 0.0
2.795000 0.0 0.0
2.800000 0.0 0.0
2.805000 0.0 0.0
2.810000 0.0 0.0
2.815000 0.0 0.0
2.820000 0.0 0.0
2.825000 0.0 0.0
2.830000 0.0 0.0
2.835000 0.0 0.0
2.840000 0.0 0.0
2.845000 0.0 0.0
2.850000 0.0 0.0
2.855000 0.0 0.0
2.860000 0.0 0.0
[...]
      <PointData Scalars="Temperature">
        <DataArray type="Float32" Name="Temperature" format="ascii">
308.150000
307.167738
306.185694
305.204086
304.223132
303.243048
302.264052
301.286359
300.310184
299.335741
298.363245
297.392905
296.424933
295.459538
294.496926
293.537304
292.580875
291.627840
290.678399
289.732750
288.791086
287.853601
286.920483
285.991920
285.068096
284.149190
283.235380
282.326840
281.423740
280.526246
279.634519
278.748715
277.868987
276.995481
276.128338
275.267722
274.415986
273.654177
273.249384
273.051839
272.924289
272.826945
272.745670
272.674096
272.608872
272.548037
272.490353
272.435000
272.381406
272.329166
272.277982
272.227631
272.177947
272.128802
272.080096
272.031754
271.983716
271.935935
271.888374
271.841006
271.793806
271.746759
271.699849
271.653066
271.606402
271.559851
271.513406
271.467066
271.420826
271.374686
271.328643
271.282696
271.236847
271.191093
271.145436
271.099876
271.054413
271.009047
270.963780
270.918612
270.873544
270.828578
270.783713
270.738951
270.694292
270.649739
270.605291
270.560950
270.516716
270.472591
270.428576
270.384672
270.340880
270.297200
270.253633
270.210182
270.166846
270.123626
270.080524
270.037541
269.994676
269.951933
269.909310
269.866809
269.824432
269.782178
269.740049
269.698046
269.656170
269.614420
269.572799
269.531307
269.489945
269.448713
269.407613
269.366645
269.325810
269.285109
269.244542
269.204111
269.163815
269.123657
269.083636
269.043753
269.004009
268.964404
268.924940
268.885616
268.846434
268.807394
268.768497
268.729743
268.691134
268.652669
268.614349
268.576175
268.538147
268.500267
268.462533
268.424948
268.387511
268.350223
268.313085
268.276097
268.239259
268.202572
268.166037
268.129653
268.093422
268.057343
268.021418
267.985646
267.950028
267.914564
267.879256
267.844102
267.809103
267.774260
267.739574
267.705044
267.670670
267.636453
267.602394
267.568492
267.534748
267.501162
267.467735
267.434466
267.401355
267.368404
267.335612
267.302979
267.270506
267.238193
267.206039
267.174046
267.142212
267.110539
267.079027
267.047675
267.016483
266.985453
266.954583
266.923874
266.893326
266.862939
266.832713
266.802648
266.772744
266.743001
266.713420
266.683999
266.654740
266.625641
266.596704
266.567927
266.539312
266.510857
266.482563
266.454430
266.426457
266.398645
266.370994
266.343502
266.316171
266.289000
266.261988
266.235137
266.208445
266.181912
266.155538
266.129324
266.103268
266.077371
266.051633
266.026052
266.000630
265.975365
265.950258
265.925308
265.900515
265.875879
265.851400
265.827076
265.802908
265.778896
265.755040
265.731338
265.707791
265.684398
265.661159
265.638074
265.615142
265.592363
265.569737
265.547263
265.524941
265.502771
265.480751
265.458883
265.437164
265.415596
265.394177
265.372907
265.351786
265.330813
265.309988
265.289310
265.268780
265.248396
265.228157
265.208065
265.188117
265.168315
265.148656
265.129141
265.109770
265.090541
265.071454
265.052509
265.033705
265.015042
264.996519
264.978136
264.959892
264.941787
264.923819
264.905990
264.888297
264.870741
264.853321
264.836036
264.818886
264.801870
264.784989
264.768240
264.751624
264.735140
264.718787
264.702565
264.686474
264.670512
264.654679
264.638975
264.623399
264.607950
264.592628
264.577433
264.562362
264.547417
264.532596
264.517899
264.503325
264.488873
264.474544
264.460335
264.446248
264.432280
264.418432
264.404703
264.391092
264.377598
264.364221
264.350961
264.337816
264.324787
264.311871
264.299070
264.286381
264.273806
264.261342
264.248989
264.236747
264.224614
264.212591
264.200677
264.188871
264.177172
264.165580
264.154094
264.142713
264.131438
264.120266
264.109198
264.098233
264.087370
264.076609
264.065948
264.055388
264.044928
264.034566
264.024303
264.014138
264.004070
263.994098
263.984223
263.974442
263.964756
263.955164
263.945665
263.936258
263.926944
263.917721
263.908589
263.899546
263.890594
263.881730
263.872954
263.864266
263.855665
263.847150
263.838721
263.830377
263.822117
263.813941
263.805849
263.797839
263.789911
263.782064
263.774298
263.766612
263.759006
263.751478
263.744029
263.736658
263.729364
263.722146
263.715004
263.707938
263.700946
263.694028
263.687184
263.680413
263.673714
263.667087
263.660531
263.654045
263.647630
263.641284
263.635007
263.628799
263.622658
263.616584
263.610577
263.604636
263.598760
263.592950
263.587204
263.581521
263.575902
263.570346
263.564851
263.559419
263.554047
263.548736
263.543485
263.538294
263.533162
263.528088
263.523072
263.518113
263.513211
263.508366
263.503576
263.498842
263.494162
263.489537
263.484966
263.480448
263.475983
263.471571
263.467210
263.462900
263.458642
263.454433
263.450275
263.446166
263.442106
263.438095
263.434131
263.430216
263.426347
263.422525
263.418749
263.415019
263.411334
263.407694
263.404098
263.400546
263.397038
263.393573
263.390150
263.386770
263.383432
263.380134
263.376878
263.373662
263.370487
263.367351
263.364254
263.361196
263.358177
263.355196
263.352252
263.349346
263.346477
263.343644
263.340847
263.338086
263.335360
263.332669
263.330013
263.327391
263.324803
263.322249
263.319727
263.317238
263.314782
263.312358
263.309965
263.307604
263.305274
263.302974
263.300705
263.298466
263.296256
263.294076
263.291925
263.289802
263.287708
263.285641
263.283603
263.281592
263.279607
263.277650
263.275719
263.273814
263.271935
263.270082
263.268254
263.266450
263.264672
263.262918
263.261188
263.259481
263.257799
263.256139
263.254502
263.252888
263.251297
263.249728
263.248180
263.246654
263.245150
263.243667
263.242204
263.240762
263.239341
263.237939
263.236558
263.235196
263.233853
263.232529
263.231225
263.229939
263.228671
263.227422
263.226190
263.224977
263.223781
263.222602
263.221440
263.220295
263.219167
263.218055
263.216959
263.215880
263.214816
263.213768
263.212735
263.211717
263.210715
263.209727
263.208754
263.207795
263.206851
263.205920
263.205004
263.204101
263.203212
263.202336
263.201473
263.200623
263.199786
263.198962
263.198150
263.197350
263.196563
263.195787
263.195023
263.194271
263.193531
263.192802
263.192084
263.191377
263.190680
263.189995
263.189320
263.188656
263.188002
263.187358
263.186724
263.186100
263.185486
263.184881
263.184286
263.183700
263.183123
263.182556
263.181997
263.181447
263.180906
263.180373
263.179849
263.179333
263.178826
263.178326
263.177835
263.177351
263.176875
263.176407
263.175946
263.175493
263.175047
263.174608
263.174176
263.173752
263.173334
263.172923
263.172518
263.172121
263.171729
263.171344
263.170966
263.170594
263.170227
263.169867
263.169513
263.169164
263.168822
263.168485
263.168153
263.167828
263.167507
263.167192
263.166882
263.166578
263.166278
263.165983
263.165694
263.165409
263.165129
263.164854
263.164584
263.164318
263.164056
263.163799
263.163546
263.163298
263.163054
263.162814
263.162578
263.162346
263.162119
263.161895
263.161675
263.161458
263.161246
263.161037
263.160832
263.160630
263.160432
263.160237
263.160046
263.159858
263.159673
263.159491
263.159313
263.159138
263.158966
263.158796
263.158630
263.158467
263.158307
263.158149
263.157995
263.157843
263.157693
263.157547
263.157403
263.157261
263.157122
263.156986
263.156852
263.156720
263.156591
263.156464
263.156339
263.156217
263.156097
263.155979
263.155863
263.155749
263.155637
263.155528
263.155420
263.155314
263.155210
263.155108
263.155008
263.154910
263.154814
263.154719
263.154626
263.154535
263.154445
263.154357
263.154271
263.154186
263.154103
263.154022
263.153941
263.153863
263.153786
263.153710
263.153636
263.153563
263.153491
263.153421
263.153352
263.153284
263.153218
263.153153
263.153089
263.153026
263.152964
263.152904
263.152845
263.152786
263.152729
263.152673
263.152618
263.152564
263.152512
263.152460
263.152409
263.152359
263.152310
263.152262
263.152214
263.152168
263.152123
263.152078
263.152034
263.151991
263.151949
263.151908
263.151867
263.151828
263.151789
263.151750
263.151713
263.151676
263.151640
263.151604
263.151569
263.151535
263.151502
263.151469
263.151436
263.151405
263.151374
263.151343
263.151313
263.151284
263.151255
263.151227
263.151199
263.151171
263.151145
263.151118
263.151093
263.151067
263.151042
263.151018
263.150994
263.150970
263.150947
263.150924
263.150902
263.150880
263.150858
263.150837
263.150816
263.150796
263.150776
263.150756
263.150737
263.150717
263.150699
263.150680
263.150662
263.150644
263.150626
263.150609
263.150592
263.150575
263.150559
263.150542
263.150526
263.150510
263.150495
263.150479
263.150464
263.150449
263.150435
263.150420
263.150406
263.150392
263.150378
263.150364
263.150350
263.150337
263.150323
263.150310
263.150297
263.150284
263.150271
263.150259
263.150246
263.150234
263.150221
263.150209
263.150197
263.150185
263.150173
263.150161
263.150149
263.150137
263.150126
263.150114
263.150103
263.150091
263.150080
263.150068
263.150057
263.150045
263.150034
263.150023
263.150011
263.150000
        </DataArray>
      </PointData>
      <CellData>
      </CellData>
    </Piece>
  </UnstructuredGrid>
</VTKFile>
