<?xml version="1.0"?>
<VTKFile type="UnstructuredGrid" version="0.1" byte_order="LittleEndian">
  <UnstructuredGrid>
    <Piece NumberOfPoints="801" NumberOfCells="800">
      <Points>
        <DataArray type="Float32" NumberOfComponents="3" format="ascii">
0.000000 0.0 0.0
0.005000 0.0 0.0
0.010000 0.0 0.0
0.015000 0.0 0.0
0.020000 0.0 0.0
0.025000 0.0 0.0
0.030000 0.0 0.0
0.035000 0.0 0.0
0.040000 0.0 0.0
0.045000 0.0 0.0
0.050000 0.0 0.0
0.055000 0.0 0.0
0.060000 0.0 0.0
0.065000 0.0 0.0
0.070000 0.0 0.0
0.075000 0.0 0.0
0.080000 0.0 0.0
0.085000 0.0 0.0
0.090000 0.0 0.0
0.095000 0.0 0.0
0.100000 0.0 0.0
0.105000 0.0 0.0
0.110000 0.0 0.0
0.115000 0.0 0.0
0.120000 0.0 0.0
0.125000 0.0 0.0
0.130000 0.0 0.0
0.135000 0.0 0.0
0.140000 0.0 0.0
0.145000 0.0 0.0
0.150000 0.0 0.0
0.155000 0.0 0.0
0.160000 0.0 0.0
0.165000 0.0 0.0
0.170000 0.0 0.0
0.175000 0.0 0.0
0.180000 0.0 0.0
0.185000 0.0 0.0
0.190000 0.0 0.0
0.195000 0.0 0.0
0.200000 0.0 0.0
0.205000 0.0 0.0
0.210000 0.0 0.0
0.215000 0.0 0.0
0.220000 0.0 0.0
0.225000 0.0 0.0
0.230000 0.0 0.0
0.235000 0.0 0.0
0.240000 0.0 0.0
0.245000 0.0 0.0
0.250000 0.0 0.0
0.255000 0.0 0.0
0.260000 0.0 0.0
0.265000 0.0 0.0
0.270000 0.0 0.0
0.275000 0.0 0.0
0.280000 0.0 0.0
0.285000 0.0 0.0
0.290000 0.0 0.0
0.295000 0.0 0.0
0.300000 0.0 0.0
0.305000 0.0 0.0
0.310000 0.0 0.0
0.315000 0.0 0.0
0.320000 0.0 0.0
0.325000 0.0 0.0
0.330000 0.0 0.0
0.335000 0.0 0.0
0.340000 0.0 0.0
0.345000 0.0 0.0
0.350000 0.0 0.0
0.355000 0.0 0.0
0.360000 0.0 0.0
0.365000 0.0 0.0
0.370000 0.0 0.0
0.375000 0.0 0.0
0.380000 0.0 0.0
0.385000 0.0 0.0
0.390000 0.0 0.0
0.395000 0.0 0.0
0.400000 0.0 0.0
0.405000 0.0 0.0
0.410000 0.0 0.0
0.415000 0.0 0.0
0.420000 0.0 0.0
0.425000 0.0 0.0
0.430000 0.0 0.0
0.435000 0.0 0.0
0.440000 0.0 0.0
0.445000 0.0 0.0
0.450000 0.0 0.0
0.455000 0.0 0.0
0.460000 0.0 0.0
0.465000 0.0 0.0
0.470000 0.0 0.0
0.475000 0.0 0.0
0.480000 0.0 0.0
0.485000 0.0 0.0
0.490000 0.0 0.0
0.495000 0.0 0.0
0.500000 0.0 0.0
0.505000 0.0 0.0
0.510000 0.0 0.0
0.515000 0.0 0.0
0.520000 0.0 0.0
0.525000 0.0 0.0
0.530000 0.0 0.0
0.535000 0.0 0.0
0.540000 0.0 0.0
0.545000 0.0 0.0
0.550000 0.0 0.0
0.555000 0.0 0.0
0.560000 0.0 0.0
0.565000 0.0 0.0
0.570000 0.0 0.0
0.575000 0.0 0.0
0.580000 0.0 0.0
0.585000 0.0 0.0
0.590000 0.0 0.0
0.595000 0.0 0.0
0.600000 0.0 0.0
0.605000 0.0 0.0
0.610000 0.0 0.0
0.615000 0.0 0.0
0.620000 0.0 0.0
0.625000 0.0 0.0
0.630000 0.0 0.0
0.635000 0.0 0.0
0.640000 0.0 0.0
0.645000 0.0 0.0
0.650000 0.0 0.0
0.655000 0.0 0.0
0.660000 0.0 0.0
0.665000 0.0 0.0
0.670000 0.0 0.0
0.675000 0.0 0.0
0.680000 0.0 0.0
0.685000 0.0 0.0
0.690000 0.0 0.0
0.695000 0.0 0.0
0.700000 0.0 0.0
0.705000 0.0 0.0
0.710000 0.0 0.0
0.715000 0.0 0.0
0.720000 0.0 0.0
0.725000 0.0 0.0
0.730000 0.0 0.0
0.735000 0.0 0.0
0.740000 0.0 0.0
0.745000 0.0 0.0
0.750000 0.0 0.0
0.755000 0.0 0.0
0.760000 0.0 0.0
0.765000 0.0 0.0
0.770000 0.0 0.0
0.775000 0.0 0.0
0.780000 0.0 0.0
0.785000 0.0 0.0
0.790000 0.0 0.0
0.795000 0.0 0.0
0.800000 0.0 0.0
0.805000 0.0 0.0
0.810000 0.0 0.0
0.815000 0.0 0.0
0.820000 0.0 0.0
0.825000 0.0 0.0
0.830000 0.0 0.0
0.835000 0.0 0.0
0.840000 0.0 0.0
0.845000 0.0 0.0
0.850000 0.0 0.0
0.855000 0.0 0.0
0.860000 0.0 0.0
0.865000 0.0 0.0
0.870000 0.0 0.0
0.875000 0.0 0.0
0.880000 0.0 0.0
0.885000 0.0 0.0
0.890000 0.0 0.0
0.895000 0.0 0.0
0.900000 0.0 0.0
0.905000 0.0 0.0
0.910000 0.0 0.0
0.915000 0.0 0.0
0.920000 0.0 0.0
0.925000 0.0 0.0
0.930000 0.0 0.0
0.935000 0.0 0.0
0.940000 0.0 0.0
0.945000 0.0 0.0
0.950000 0.0 0.0
0.955000 0.0 0.0
0.960000 0.0 0.0
0.965000 0.0 0.0
0.970000 0.0 0.0
0.975000 0.0 0.0
0.980000 0.0 0.0
0.985000 0.0 0.0
0.990000 0.0 0.0
0.995000 0.0 0.0
1.000000 0.0 0.0
1.005000 0.0 0.0
1.010000 0.0 0.0
1.015000 0.0 0.0
1.020000 0.0 0.0
1.025000 0.0 0.0
1.030000 0.0 0.0
1.035000 0.0 0.0
1.040000 0.0 0.0
1.045000 0.0 0.0
1.050000 0.0 0.0
1.055000 0.0 0.0
1.060000 0.0 0.0
1.065000 0.0 0.0
1.070000 0.0 0.0
1.075000 0.0 0.0
1.080000 0.0 0.0
1.085000 0.0 0.0
1.090000 0.0 0.0
1.095000 0.0 0.0
1.100000 0.0 0.0
1.105000 0.0 0.0
1.110000 0.0 0.0
1.115000 0.0 0.0
1.120000 0.0 0.0
1.125000 0.0 0.0
1.130000 0.0 0.0
1.135000 0.0 0.0
1.140000 0.0 0.0
1.145000 0.0 0.0
1.150000 0.0 0.0
1.155000 0.0 0.0
1.160000 0.0 0.0
1.165000 0.0 0.0
1.170000 0.0 0.0
1.175000 0.0 0.0
1.180000 0.0 0.0
1.185000 0.0 0.0
1.190000 0.0 0.0
1.195000 0.0 0.0
1.200000 0.0 0.0
1.205000 0.0 0.0
1.210000 0.0 0.0
1.215000 0.0 0.0
1.220000 0.0 0.0
1.225000 0.0 0.0
1.230000 0.0 0.0
1.235000 0.0 0.0
1.240000 0.0 0.0
1.245000 0.0 0.0
1.250000 0.0 0.0
1.255000 0.0 0.0
1.260000 0.0 0.0
1.265000 0.0 0.0
1.270000 0.0 0.0
1.275000 0.0 0.0
1.280000 0.0 0.0
1.285000 0.0 0.0
1.290000 0.0 0.0
1.295000 0.0 0.0
1.300000 0.0 0.0
1.305000 0.0 0.0
1.310000 0.0 0.0
1.315000 0.0 0.0
1.320000 0.0 0.0
1.325000 0.0 0.0
1.330000 0.0 0.0
1.335000 0.0 0.0
1.340000 0.0 0.0
1.345000 0.0 0.0
1.350000 0.0 0.0
1.355000 0.0 0.0
1.360000 0.0 0.0
1.365000 0.0 0.0
1.370000 0.0 0.0
1.375000 0.0 0.0
1.380000 0.0 0.0
1.385000 0.0 0.0
1.390000 0.0 0.0
1.395000 0.0 0.0
1.400000 0.0 0.0
1.405000 0.0 0.0
1.410000 0.0 0.0
1.415000 0.0 0.0
1.420000 0.0 0.0
1.425000 0.0 0.0
1.430000 0.0 0.0
1.435000 0.0 0.0
1.440000 0.0 0.0
1.445000 0.0 0.0
1.450000 0.0 0.0
1.455000 0.0 0.0
1.460000 0.0 0.0
1.465000 0.0 0.0
1.470000 0.0 0.0
1.475000 0.0 0.0
1.480000 0.0 0.0
1.485000 0.0 0.0
1.490000 0.0 0.0
1.495000 0.0 0.0
1.500000 0.0 0.0
1.505000 0.0 0.0
1.510000 0.0 0.0
1.515000 0.0 0.0
1.520000 0.0 0.0
1.525000 0.0 0.0
1.530000 0.0 0.0
1.535000 0.0 0.0
1.540000 0.0 0.0
1.545000 0.0 0.0
1.550000 0.0 0.0
1.555000 0.0 0.0
1.560000 0.0 0.0
1.565000 0.0 0.0
1.570000 0.0 0.0
1.575000 0.0 0.0
1.580000 0.0 0.0
1.585000 0.0 0.0
1.590000 0.0 0.0
1.595000 0.0 0.0
1.600000 0.0 0.0
1.605000 0.0 0.0
1.610000 0.0 0.0
1.615000 0.0 0.0
1.620000 0.0 0.0
1.625000 0.0 0.0
1.630000 0.0 0.0
1.635000 0.0 0.0
1.640000 0.0 0.0
1.645000 0.0 0.0
1.650000 0.0 0.0
1.655000 0.0 0.0
1.660000 0.0 0.0
1.665000 0.0 0.0
1.670000 0.0 0.0
1.675000 0.0 0.0
1.680000 0.0 0.0
1.685000 0.0 0.0
1.690000 0.0 0.0
1.695000 0.0 0.0
1.700000 0.0 0.0
1.705000 0.0 0.0
1.710000 0.0 0.0
1.715000 0.0 0.0
1.720000 0.0 0.0
1.725000 0.0 0.0
1.730000 0.0 0.0
1.735000 0.0 0.0
1.740000 0.0 0.0
1.745000 0.0 0.0
1.750000 0.0 0.0
1.755000 0.0 0.0
1.760000 0.0 0.0
1.765000 0.0 0.0
1.770000 0.0 0.0
1.775000 0.0 0.0
1.780000 0.0 0.0
1.785000 0.0 0.0
1.790000 0.0 0.0
1.795000 0.0 0.0
1.800000 0.0 0.0
1.805000 0.0 0.0
1.810000 0.0 0.0
1.815000 0.0 0.0
1.820000 0.0 0.0
1.825000 0.0 0.0
1.830000 0.0 0.0
1.835000 0.0 0.0
1.840000 0.0 0.0
1.845000 0.0 0.0
1.850000 0.0 0.0
1.855000 0.0 0.0
1.860000 0.0 0.0
1.865000 0.0 0.0
1.870000 0.0 0.0
1.875000 0.0 0.0
1.880000 0.0 0.0
1.885000 0.0 0.0
1.890000 0.0 0.0
1.895000 0.0 0.0
1.900000 0.0 0.0
1.905000 0.0 0.0
1.910000 0.0 0.0
1.915000 0.0 0.0
1.920000 0.0 0.0
1.925000 0.0 0.0
1.930000 0.0 0.0
1.935000 0.0 0.0
1.940000 0.0 0.0
1.945000 0.0 0.0
1.950000 0.0 0.0
1.955000 0.0 0.0
1.960000 0.0 0.0
1.965000 0.0 0.0
1.970000 0.0 0.0
1.975000 0.0 0.0
1.980000 0.0 0.0
1.985000 0.0 0.0
1.990000 0.0 0.0
1.995000 0.0 0.0
2.000000 0.0 0.0
2.005000 0.0 0.0
2.010000 0.0 0.0
2.015000 0.0 0.0
2.020000 0.0 0.0
2.025000 0.0 0.0
2.030000 0.0 0.0
2.035000 0.0 0.0
2.040000 0.0 0.0
2.045000 0.0 0.0
2.050000 0.0 0.0
2.055000 0.0 0.0
2.060000 0.0 0.0
2.065000 0.0 0.0
2.070000 0.0 0.0
2.075000 0.0 0.0
2.080000 0.0 0.0
2.085000 0.0 0.0
2.090000 0.0 0.0
2.095000 0.0 0.0
2.100000 0.0 0.0
2.105000 0.0 0.0
2.110000 0.0 0.0
2.115000 0.0 0.0
2.120000 0.0 0.0
2.125000 0.0 0.0
2.130000 0.0 0.0
2.135000 0.0 0.0
2.140000 0.0 0.0
2.145000 0.0 0.0
2.150000 0.0 0.0
2.155000 0.0 0.0
2.160000 0.0 0.0
2.165000 0.0 0.0
2.170000 0.0 0.0
2.175000 0.0 0.0
2.180000 0.0 0.0
2.185000 0.0 0.0
2.190000 0.0 0.0
2.195000 0.0 0.0
2.200000 0.0 0.0
2.205000 0.0 0.0
2.210000 0.0 0.0
2.215000 0.0 0.0
2.220000 0.0 0.0
2.225000 0.0 0.0
2.230000 0.0 0.0
2.235000 0.0 0.0
2.240000 0.0 0.0
2.245000 0.0 0.0
2.250000 0.0 0.0
2.255000 0.0 0.0
2.260000 0.0 0.0
2.265000 0.0 0.0
2.270000 0.0 0.0
2.275000 0.0 0.0
2.280000 0.0 0.0
2.285000 0.0 0.0
2.290000 0.0 0.0
2.295000 0.0 0.0
2.300000 0.0 0.0
2.305000 0.0 0.0
2.310000 0.0 0.0
2.315000 0.0 0.0
2.320000 0.0 0.0
2.325000 0.0 0.0
2.330000 0.0 0.0
2.335000 0.0 0.0
2.340000 0.0 0.0
2.345000 0.0 0.0
2.350000 0.0 0.0
2.355000 0.0 0.0
2.360000 0.0 0.0
2.365000 0.0 0.0
2.370000 0.0 0.0
2.375000 0.0 0.0
2.380000 0.0 0.0
2.385000 0.0 0.0
2.390000 0.0 0.0
2.395000 0.0 0.0
2.400000 0.0 0.0
2.405000 0.0 0.0
2.410000 0.0 0.0
2.415000 0.0 0.0
2.420000 0.0 0.0
2.425000 0.0 0.0
2.430000 0.0 0.0
2.435000 0.0 0.0
2.440000 0.0 0.0
2.445000 0.0 0.0
2.450000 0.0 0.0
2.455000 0.0 0.0
2.460000 0.0 0.0
2.465000 0.0 0.0
2.470000 0.0 0.0
2.475000 0.0 0.0
2.480000 0.0 0.0
2.485000 0.0 0.0
2.490000 0.0 0.0
2.495000 0.0 0.0
2.500000 0.0 0.0
2.505000 0.0 0.0
2.510000 0.0 0.0
2.515000 0.0 0.0
2.520000 0.0 0.0
2.525000 0.0 0.0
2.530000 0.0 0.0
2.535000 0.0 0.0
2.540000 0.0 0.0
2.545000 0.0 0.0
2.550000 0.0 0.0
2.555000 0.0 0.0
2.560000 0.0 0.0
2.565000 0.0 0.0
2.570000 0.0 0.0
2.575000 0.0 0.0
2.580000 0.0 0.0
2.585000 0.0 0.0
2.590000 0.0 0.0
2.595000 0.0 0.0
2.600000 0.0 0.0
2.605000 0.0 0.0
2.610000 0.0 0.0
2.615000 0.0 0.0
2.620000 0.0 0.0
2.625000 0.0 0.0
2.630000 0.0 0.0
2.635000 0.0 0.0
2.640000 0.0 0.0
2.645000 0.0 0.0
2.650000 0.0 0.0
2.655000 0.0 0.0
2.660000 0.0 0.0
2.665000 0.0 0.0
2.670000 0.0 0.0
2.675000 0.0 0.0
2.680000 0.0 0.0
2.685000 0.0 0.0
2.690000 0.0 0.0
2.695000 0.0 0.0
2.700000 0.0 0.0
2.705000 0.0 0.0
2.710000 0.0 0.0
2.715000 0.0 0.0
2.720000 0.0 0.0
2.725000 0.0 0.0
2.730000 0.0 0.0
2.735000 0.0 0.0
2.740000 0.0 0.0
2.745000 0.0 0.0
2.750000 0.0 0.0
2.755000 0.0 0.0
2.760000 0.0 0.0
2.765000 0.0 0.0
2.770000 0.0 0.0
2.775000 0.0 0.0
2.780000 0.0 0.0
2.785000 0.0 0.0
2.790000 0.0 0.0
2.795000 0.0 0.0
2.800000 0.0 0.0
2.805000 0.0 0.0
2.810000 0.0 0.0
2.815000 0.0 0.0
2.820000 0.0 0.0
2.825000 0.0 0.0
2.830000 0.0 0.0
2.835000 0.0 0.0
2.840000 0.0 0.0
2.845000 0.0 0.0
2.850000 0.0 0.0
2.855000 0.0 0.0
2.860000 0.0 0.0
[...]
      <PointData Scalars="Temperature">
        <DataArray type="Float32" Name="Temperature" format="ascii">
308.150000
307.079710
306.009699
304.940250
303.871640
302.804150
301.738058
300.673640
299.611172
298.550930
297.493186
296.438211
295.386274
294.337642
293.292579
292.251347
291.214205
290.181408
289.153210
288.129860
287.111605
286.098686
285.091341
284.089806
283.094309
282.105076
281.122325
280.146272
279.177124
278.215082
277.260340
276.313084
275.373511
274.443976
273.624658
273.218836
273.022909
272.894673
272.795536
272.711862
272.637499
272.569201
272.505068
272.443903
272.384914
272.327553
272.271432
272.216271
272.161861
272.108049
272.054718
272.001779
271.949165
271.896825
271.844718
271.792815
271.741093
271.689533
271.638122
271.586851
271.535712
271.484699
271.433807
271.383035
271.332381
271.281843
271.231420
271.181113
271.130922
271.080847
271.030890
270.981050
270.931329
270.881729
270.832250
270.782893
270.733660
270.684552
270.635571
270.586717
270.537992
270.489398
270.440935
270.392606
270.344410
270.296351
270.248429
270.200645
270.153000
270.105497
270.058136
270.010918
269.963845
269.916918
269.870138
269.823506
269.777024
269.730693
269.684514
269.638488
269.592615
269.546899
269.501338
269.455935
269.410691
269.365606
269.320682
269.275920
269.231321
269.186885
269.142614
269.098508
269.054570
269.010799
268.967196
268.923763
268.880500
268.837408
268.794489
268.751742
268.709169
268.666770
268.624547
268.582500
268.540630
268.498937
268.457423
268.416088
268.374932
268.333958
268.293164
268.252552
268.212122
268.171876
268.131813
268.091935
268.052241
268.012733
267.973410
267.934274
267.895326
267.856564
267.817991
267.779605
267.741409
267.703402
267.665585
267.627958
267.590521
267.553275
267.516221
267.479358
267.442687
267.406208
267.369921
267.333827
267.297927
267.262219
267.226705
267.191385
267.156259
267.121326
267.086588
267.052045
267.017696
266.983541
266.949582
266.915817
266.882247
266.848873
266.815693
266.782709
266.749919
266.717325
266.684926
266.652723
266.620714
266.588900
266.557282
266.525858
266.494629
266.463595
266.432756
266.402111
266.371660
266.341404
266.311342
266.281474
266.251799
266.222318
266.193030
266.163935
266.135033
266.106323
266.077806
266.049480
266.021347
265.993405
265.965654
265.938093
265.910723
265.883543
265.856553
265.829753
265.803141
265.776717
265.750482
265.724435
265.698575
265.672902
265.647416
265.622115
265.597000
265.572070
265.547325
265.522763
265.498386
265.474191
265.450179
265.426349
265.402700
265.379233
265.355945
265.332838
265.309910
265.287160
265.264588
265.242194
265.219977
265.197936
265.176071
265.154380
265.132864
265.111522
265.090353
265.069356
265.048530
265.027876
265.007392
264.987078
264.966933
264.946956
264.927147
264.907504
264.888028
264.868717
264.849571
264.830589
264.811770
264.793113
264.774618
264.756285
264.738111
264.720097
264.702241
264.684544
264.667003
264.649619
264.632391
264.615317
264.598397
264.581630
264.565016
264.548553
264.532241
264.516079
264.500066
264.484202
264.468485
264.452914
264.437490
264.422210
264.407075
264.392082
264.377233
264.362525
264.347958
264.333531
264.319243
264.305093
264.291081
264.277205
264.263465
264.249860
264.236389
264.223051
264.209845
264.196771
264.183828
264.171014
264.158329
264.145773
264.133343
264.121040
264.108862
264.096809
264.084879
264.073073
264.061388
264.049825
264.038382
264.027058
264.015853
264.004766
263.993795
263.982941
263.972202
263.961577
263.951065
263.940666
263.930379
263.920203
263.910137
263.900180
263.890332
263.880591
263.870957
263.861428
263.852005
263.842686
263.833470
263.824357
263.815345
263.806434
263.797624
263.788912
263.780299
263.771784
263.763365
263.755042
263.746814
263.738681
263.730641
263.722694
263.714839
263.707075
263.699402
263.691818
263.684322
263.676915
263.669595
263.662361
263.655213
263.648150
263.641171
263.634275
263.627462
263.620730
263.614080
263.607510
263.601019
263.594608
263.588274
263.582018
263.575838
263.569735
263.563706
263.557752
263.551872
263.546064
263.540329
263.534665
263.529073
263.523550
263.518097
263.512713
263.507397
263.502148
263.496966
263.491850
263.486800
263.481814
263.476892
263.472034
263.467239
263.462505
263.457833
263.453222
263.448671
263.444180
263.439747
263.435373
263.431056
263.426797
263.422594
263.418447
263.414355
263.410317
263.406334
263.402404
263.398527
263.394702
263.390929
263.387207
263.383536
263.379914
263.376342
263.372819
263.369345
263.365918
263.362538
263.359205
263.355918
263.352677
263.349480
263.346329
263.343221
263.340157
263.337136
263.334158
263.331221
263.328326
263.325473
263.322659
263.319886
263.317152
263.314458
263.311802
263.309184
263.306604
263.304062
263.301556
263.299086
263.296652
263.294254
263.291891
263.289562
263.287268
263.285007
263.282780
263.280585
263.278423
263.276293
263.274195
263.272128
263.270091
263.268086
263.266110
263.264164
263.262247
263.260359
263.258500
263.256669
263.254866
263.253090
263.251341
263.249619
263.247924
263.246254
263.244610
263.242992
263.241398
263.239829
263.238285
263.236764
263.235267
263.233794
263.232344
263.230916
263.229510
263.228127
263.226766
263.225426
263.224107
263.222810
263.221533
263.220276
263.219039
263.217822
263.216625
263.215447
263.214287
263.213147
263.212025
263.210921
263.209834
263.208766
263.207715
263.206681
263.205664
263.204664
263.203680
263.202712
263.201760
263.200824
263.199903
263.198998
263.198108
263.197232
263.196371
263.195524
263.194692
263.193874
263.193069
263.192277
263.191500
263.190735
263.189983
263.189244
263.188517
263.187803
263.187101
263.186411
263.185733
263.185066
263.184411
263.183767
263.183134
263.182512
263.181901
263.181300
263.180710
263.180130
263.179561
263.179001
263.178451
263.177910
263.177379
263.176857
263.176345
263.175842
263.175347
263.174861
263.174384
263.173915
263.173455
263.173003
263.172559
263.172122
263.171694
263.171273
263.170860
263.170455
263.170056
263.169665
263.169281
263.168904
263.168533
263.168170
263.167813
263.167463
263.167119
263.166781
263.166449
263.166124
263.165804
263.165491
263.165183
263.164881
263.164584
263.164293
263.164008
263.163728
263.163453
263.163183
263.162918
263.162658
263.162403
263.162153
263.161907
263.161666
263.161430
263.161198
263.160971
263.160747
263.160528
263.160314
263.160103
263.159896
263.159694
263.159495
263.159300
263.159109
263.158921
263.158737
263.158557
263.158380
263.158206
263.158036
263.157870
263.157706
263.157546
263.157388
263.157234
263.157083
263.156935
263.156790
263.156647
263.156508
263.156371
263.156237
263.156105
263.155976
263.155850
263.155726
263.155605
263.155486
263.155369
263.155255
263.155143
263.155033
263.154926
263.154820
263.154717
263.154616
263.154517
263.154420
263.154325
263.154231
263.154140
263.154051
263.153963
263.153877
263.153793
263.153711
263.153630
263.153551
263.153474
263.153398
263.153324
263.153251
263.153180
263.153110
263.153042
263.152975
263.152909
263.152845
263.152782
263.152721
263.152661
263.152602
263.152544
263.152488
263.152432
263.152378
263.152325
263.152273
263.152222
263.152173
263.152124
263.152077
263.152030
263.151984
263.151940
263.151896
263.151853
263.151811
263.151770
263.151730
263.151691
263.151653
263.151615
263.151578
263.151542
263.151507
263.151473
263.151439
263.151406
263.151374
263.151342
263.151312
263.151281
263.151252
263.151223
263.151195
263.151167
263.151140
263.151114
263.151088
263.151063
263.151038
263.151014
263.150990
263.150967
263.150945
263.150922
263.150901
263.150880
263.150859
263.150839
263.150819
263.150800
263.150781
263.150762
263.150744
263.150727
263.150709
263.150693
263.150676
263.150660
263.150644
263.150629
263.150614
263.150599
263.150585
263.150571
263.150557
263.150543
263.150530
263.150518
263.150505
263.150493
263.150481
263.150469
263.150458
263.150446
263.150435
263.150425
263.150414
263.150404
263.150394
263.150384
263.150375
263.150366
263.150357
263.150348
263.150339
263.150331
263.150322
263.150314
263.150306
263.150298
263.150291
263.150284
263.150276
263.150269
263.150262
263.150256
263.150249
263.150243
263.150236
263.150230
263.150224
263.150218
263.150212
263.150207
263.150201
263.150196
263.150191
263.150186
263.150181
263.150176
263.150171
263.150166
263.150161
263.150157
263.150153
263.150148
263.150144
263.150140
263.150136
263.150132
263.150128
263.150124
263.150120
263.150117
263.150113
263.150110
263.150106
263.150103
263.150100
263.150096
263.150093
263.150090
263.150087
263.150084
263.150081
263.150078
263.150075
263.150072
263.150070
263.150067
263.150064
263.150062
263.150059
263.150056
263.150054
263.150051
263.150049
263.150046
263.150044
263.150042
263.150039
263.150037
263.150035
263.150032
263.150030
263.150028
263.150026
263.150024
263.150021
263.150019
263.150017
263.150015
263.150013
263.150011
263.150008
263.150006
263.150004
263.150002
263.150000
        </DataArray>
      </PointData>
      <CellData>
      </CellData>
    </Piece>
  </UnstructuredGrid>
</VTKFile>
