<?xml version="1.0"?>
<VTKFile type="UnstructuredGrid" version="0.1" byte_order="LittleEndian">
  <UnstructuredGrid>
    <Piece NumberOfPoints="801" NumberOfCells="800">
      <Points>
        <DataArray type="Float32" NumberOfComponents="3" format="ascii">
0.000000 0.0 0.0
0.005000 0.0 0.0
0.010000 0.0 0.0
0.015000 0.0 0.0
0.020000 0.0 0.0
0.025000 0.0 0.0
0.030000 0.0 0.0
0.035000 0.0 0.0
0.040000 0.0 0.0
0.045000 0.0 0.0
0.050000 0.0 0.0
0.055000 0.0 0.0
0.060000 0.0 0.0
0.065000 0.0 0.0
0.070000 0.0 0.0
0.075000 0.0 0.0
0.080000 0.0 0.0
0.085000 0.0 0.0
0.090000 0.0 0.0
0.095000 0.0 0.0
0.100000 0.0 0.0
0.105000 0.0 0.0
0.110000 0.0 0.0
0.115000 0.0 0.0
0.120000 0.0 0.0
0.125000 0.0 0.0
0.130000 0.0 0.0
0.135000 0.0 0.0
0.140000 0.0 0.0
0.145000 0.0 0.0
0.150000 0.0 0.0
0.155000 0.0 0.0
0.160000 0.0 0.0
0.165000 0.0 0.0
0.170000 0.0 0.0
0.175000 0.0 0.0
0.180000 0.0 0.0
0.185000 0.0 0.0
0.190000 0.0 0.0
0.195000 0.0 0.0
0.200000 0.0 0.0
0.205000 0.0 0.0
0.210000 0.0 0.0
0.215000 0.0 0.0
0.220000 0.0 0.0
0.225000 0.0 0.0
0.230000 0.0 0.0
0.235000 0.0 0.0
0.240000 0.0 0.0
0.245000 0.0 0.0
0.250000 0.0 0.0
0.255000 0.0 0.0
0.260000 0.0 0.0
0.265000 0.0 0.0
0.270000 0.0 0.0
0.275000 0.0 0.0
0.280000 0.0 0.0
0.285000 0.0 0.0
0.290000 0.0 0.0
0.295000 0.0 0.0
0.300000 0.0 0.0
0.305000 0.0 0.0
0.310000 0.0 0.0
0.315000 0.0 0.0
0.320000 0.0 0.0
0.325000 0.0 0.0
0.330000 0.0 0.0
0.335000 0.0 0.0
0.340000 0.0 0.0
0.345000 0.0 0.0
0.350000 0.0 0.0
0.355000 0.0 0.0
0.360000 0.0 0.0
0.365000 0.0 0.0
0.370000 0.0 0.0
0.375000 0.0 0.0
0.380000 0.0 0.0
0.385000 0.0 0.0
0.390000 0.0 0.0
0.395000 0.0 0.0
0.400000 0.0 0.0
0.405000 0.0 0.0
0.410000 0.0 0.0
0.415000 0.0 0.0
0.420000 0.0 0.0
0.425000 0.0 0.0
0.430000 0.0 0.0
0.435000 0.0 0.0
0.440000 0.0 0.0
0.445000 0.0 0.0
0.450000 0.0 0.0
0.455000 0.0 0.0
0.460000 0.0 0.0
0.465000 0.0 0.0
0.470000 0.0 0.0
0.475000 0.0 0.0
0.480000 0.0 0.0
0.485000 0.0 0.0
0.490000 0.0 0.0
0.495000 0.0 0.0
0.500000 0.0 0.0
0.505000 0.0 0.0
0.510000 0.0 0.0
0.515000 0.0 0.0
0.520000 0.0 0.0
0.525000 0.0 0.0
0.530000 0.0 0.0
0.535000 0.0 0.0
0.540000 0.0 0.0
0.545000 0.0 0.0
0.550000 0.0 0.0
0.555000 0.0 0.0
0.560000 0.0 0.0
0.565000 0.0 0.0
0.570000 0.0 0.0
0.575000 0.0 0.0
0.580000 0.0 0.0
0.585000 0.0 0.0
0.590000 0.0 0.0
0.595000 0.0 0.0
0.600000 0.0 0.0
0.605000 0.0 0.0
0.610000 0.0 0.0
0.615000 0.0 0.0
0.620000 0.0 0.0
0.625000 0.0 0.0
0.630000 0.0 0.0
0.635000 0.0 0.0
0.640000 0.0 0.0
0.645000 0.0 0.0
0.650000 0.0 0.0
0.655000 0.0 0.0
0.660000 0.0 0.0
0.665000 0.0 0.0
0.670000 0.0 0.0
0.675000 0.0 0.0
0.680000 0.0 0.0
0.685000 0.0 0.0
0.690000 0.0 0.0
0.695000 0.0 0.0
0.700000 0.0 0.0
0.705000 0.0 0.0
0.710000 0.0 0.0
0.715000 0.0 0.0
0.720000 0.0 0.0
0.725000 0.0 0.0
0.730000 0.0 0.0
0.735000 0.0 0.0
0.740000 0.0 0.0
0.745000 0.0 0.0
0.750000 0.0 0.0
0.755000 0.0 0.0
0.760000 0.0 0.0
0.765000 0.0 0.0
0.770000 0.0 0.0
0.775000 0.0 0.0
0.780000 0.0 0.0
0.785000 0.0 0.0
0.790000 0.0 0.0
0.795000 0.0 0.0
0.800000 0.0 0.0
0.805000 0.0 0.0
0.810000 0.0 0.0
0.815000 0.0 0.0
0.820000 0.0 0.0
0.825000 0.0 0.0
0.830000 0.0 0.0
0.835000 0.0 0.0
0.840000 0.0 0.0
0.845000 0.0 0.0
0.850000 0.0 0.0
0.855000 0.0 0.0
0.860000 0.0 0.0
0.865000 0.0 0.0
0.870000 0.0 0.0
0.875000 0.0 0.0
0.880000 0.0 0.0
0.885000 0.0 0.0
0.890000 0.0 0.0
0.895000 0.0 0.0
0.900000 0.0 0.0
0.905000 0.0 0.0
0.910000 0.0 0.0
0.915000 0.0 0.0
0.920000 0.0 0.0
0.925000 0.0 0.0
0.930000 0.0 0.0
0.935000 0.0 0.0
0.940000 0.0 0.0
0.945000 0.0 0.0
0.950000 0.0 0.0
0.955000 0.0 0.0
0.960000 0.0 0.0
0.965000 0.0 0.0
0.970000 0.0 0.0
0.975000 0.0 0.0
0.980000 0.0 0.0
0.985000 0.0 0.0
0.990000 0.0 0.0
0.995000 0.0 0.0
1.000000 0.0 0.0
1.005000 0.0 0.0
1.010000 0.0 0.0
1.015000 0.0 0.0
1.020000 0.0 0.0
1.025000 0.0 0.0
1.030000 0.0 0.0
1.035000 0.0 0.0
1.040000 0.0 0.0
1.045000 0.0 0.0
1.050000 0.0 0.0
1.055000 0.0 0.0
1.060000 0.0 0.0
1.065000 0.0 0.0
1.070000 0.0 0.0
1.075000 0.0 0.0
1.080000 0.0 0.0
1.085000 0.0 0.0
1.090000 0.0 0.0
1.095000 0.0 0.0
1.100000 0.0 0.0
1.105000 0.0 0.0
1.110000 0.0 0.0
1.115000 0.0 0.0
1.120000 0.0 0.0
1.125000 0.0 0.0
1.130000 0.0 0.0
1.135000 0.0 0.0
1.140000 0.0 0.0
1.145000 0.0 0.0
1.150000 0.0 0.0
1.155000 0.0 0.0
1.160000 0.0 0.0
1.165000 0.0 0.0
1.170000 0.0 0.0
1.175000 0.0 0.0
1.180000 0.0 0.0
1.185000 0.0 0.0
1.190000 0.0 0.0
1.195000 0.0 0.0
1.200000 0.0 0.0
1.205000 0.0 0.0
1.210000 0.0 0.0
1.215000 0.0 0.0
1.220000 0.0 0.0
1.225000 0.0 0.0
1.230000 0.0 0.0
1.235000 0.0 0.0
1.240000 0.0 0.0
1.245000 0.0 0.0
1.250000 0.0 0.0
1.255000 0.0 0.0
1.260000 0.0 0.0
1.265000 0.0 0.0
1.270000 0.0 0.0
1.275000 0.0 0.0
1.280000 0.0 0.0
1.285000 0.0 0.0
1.290000 0.0 0.0
1.295000 0.0 0.0
1.300000 0.0 0.0
1.305000 0.0 0.0
1.310000 0.0 0.0
1.315000 0.0 0.0
1.320000 0.0 0.0
1.325000 0.0 0.0
1.330000 0.0 0.0
1.335000 0.0 0.0
1.340000 0.0 0.0
1.345000 0.0 0.0
1.350000 0.0 0.0
1.355000 0.0 0.0
1.360000 0.0 0.0
1.365000 0.0 0.0
1.370000 0.0 0.0
1.375000 0.0 0.0
1.380000 0.0 0.0
1.385000 0.0 0.0
1.390000 0.0 0.0
1.395000 0.0 0.0
1.400000 0.0 0.0
1.405000 0.0 0.0
1.410000 0.0 0.0
1.415000 0.0 0.0
1.420000 0.0 0.0
1.425000 0.0 0.0
1.430000 0.0 0.0
1.435000 0.0 0.0
1.440000 0.0 0.0
1.445000 0.0 0.0
1.450000 0.0 0.0
1.455000 0.0 0.0
1.460000 0.0 0.0
1.465000 0.0 0.0
1.470000 0.0 0.0
1.475000 0.0 0.0
1.480000 0.0 0.0
1.485000 0.0 0.0
1.490000 0.0 0.0
1.495000 0.0 0.0
1.500000 0.0 0.0
1.505000 0.0 0.0
1.510000 0.0 0.0
1.515000 0.0 0.0
1.520000 0.0 0.0
1.525000 0.0 0.0
1.530000 0.0 0.0
1.535000 0.0 0.0
1.540000 0.0 0.0
1.545000 0.0 0.0
1.550000 0.0 0.0
1.555000 0.0 0.0
1.560000 0.0 0.0
1.565000 0.0 0.0
1.570000 0.0 0.0
1.575000 0.0 0.0
1.580000 0.0 0.0
1.585000 0.0 0.0
1.590000 0.0 0.0
1.595000 0.0 0.0
1.600000 0.0 0.0
1.605000 0.0 0.0
1.610000 0.0 0.0
1.615000 0.0 0.0
1.620000 0.0 0.0
1.625000 0.0 0.0
1.630000 0.0 0.0
1.635000 0.0 0.0
1.640000 0.0 0.0
1.645000 0.0 0.0
1.650000 0.0 0.0
1.655000 0.0 0.0
1.660000 0.0 0.0
1.665000 0.0 0.0
1.670000 0.0 0.0
1.675000 0.0 0.0
1.680000 0.0 0.0
1.685000 0.0 0.0
1.690000 0.0 0.0
1.695000 0.0 0.0
1.700000 0.0 0.0
1.705000 0.0 0.0
1.710000 0.0 0.0
1.715000 0.0 0.0
1.720000 0.0 0.0
1.725000 0.0 0.0
1.730000 0.0 0.0
1.735000 0.0 0.0
1.740000 0.0 0.0
1.745000 0.0 0.0
1.750000 0.0 0.0
1.755000 0.0 0.0
1.760000 0.0 0.0
1.765000 0.0 0.0
1.770000 0.0 0.0
1.775000 0.0 0.0
1.780000 0.0 0.0
1.785000 0.0 0.0
1.790000 0.0 0.0
1.795000 0.0 0.0
1.800000 0.0 0.0
1.805000 0.0 0.0
1.810000 0.0 0.0
1.815000 0.0 0.0
1.820000 0.0 0.0
1.825000 0.0 0.0
1.830000 0.0 0.0
1.835000 0.0 0.0
1.840000 0.0 0.0
1.845000 0.0 0.0
1.850000 0.0 0.0
1.855000 0.0 0.0
1.860000 0.0 0.0
1.865000 0.0 0.0
1.870000 0.0 0.0
1.875000 0.0 0.0
1.880000 0.0 0.0
1.885000 0.0 0.0
1.890000 0.0 0.0
1.895000 0.0 0.0
1.900000 0.0 0.0
1.905000 0.0 0.0
1.910000 0.0 0.0
1.915000 0.0 0.0
1.920000 0.0 0.0
1.925000 0.0 0.0
1.930000 0.0 0.0
1.935000 0.0 0.0
1.940000 0.0 0.0
1.945000 0.0 0.0
1.950000 0.0 0.0
1.955000 0.0 0.0
1.960000 0.0 0.0
1.965000 0.0 0.0
1.970000 0.0 0.0
1.975000 0.0 0.0
1.980000 0.0 0.0
1.985000 0.0 0.0
1.990000 0.0 0.0
1.995000 0.0 0.0
2.000000 0.0 0.0
2.005000 0.0 0.0
2.010000 0.0 0.0
2.015000 0.0 0.0
2.020000 0.0 0.0
2.025000 0.0 0.0
2.030000 0.0 0.0
2.035000 0.0 0.0
2.040000 0.0 0.0
2.045000 0.0 0.0
2.050000 0.0 0.0
2.055000 0.0 0.0
2.060000 0.0 0.0
2.065000 0.0 0.0
2.070000 0.0 0.0
2.075000 0.0 0.0
2.080000 0.0 0.0
2.085000 0.0 0.0
2.090000 0.0 0.0
2.095000 0.0 0.0
2.100000 0.0 0.0
2.105000 0.0 0.0
2.110000 0.0 0.0
2.115000 0.0 0.0
2.120000 0.0 0.0
2.125000 0.0 0.0
2.130000 0.0 0.0
2.135000 0.0 0.0
2.140000 0.0 0.0
2.145000 0.0 0.0
2.150000 0.0 0.0
2.155000 0.0 0.0
2.160000 0.0 0.0
2.165000 0.0 0.0
2.170000 0.0 0.0
2.175000 0.0 0.0
2.180000 0.0 0.0
2.185000 0.0 0.0
2.190000 0.0 0.0
2.195000 0.0 0.0
2.200000 0.0 0.0
2.205000 0.0 0.0
2.210000 0.0 0.0
2.215000 0.0 0.0
2.220000 0.0 0.0
2.225000 0.0 0.0
2.230000 0.0 0.0
2.235000 0.0 0.0
2.240000 0.0 0.0
2.245000 0.0 0.0
2.250000 0.0 0.0
2.255000 0.0 0.0
2.260000 0.0 0.0
2.265000 0.0 0.0
2.270000 0.0 0.0
2.275000 0.0 0.0
2.280000 0.0 0.0
2.285000 0.0 0.0
2.290000 0.0 0.0
2.295000 0.0 0.0
2.300000 0.0 0.0
2.305000 0.0 0.0
2.310000 0.0 0.0
2.315000 0.0 0.0
2.320000 0.0 0.0
2.325000 0.0 0.0
2.330000 0.0 0.0
2.335000 0.0 0.0
2.340000 0.0 0.0
2.345000 0.0 0.0
2.350000 0.0 0.0
2.355000 0.0 0.0
2.360000 0.0 0.0
2.365000 0.0 0.0
2.370000 0.0 0.0
2.375000 0.0 0.0
2.380000 0.0 0.0
2.385000 0.0 0.0
2.390000 0.0 0.0
2.395000 0.0 0.0
2.400000 0.0 0.0
2.405000 0.0 0.0
2.410000 0.0 0.0
2.415000 0.0 0.0
2.420000 0.0 0.0
2.425000 0.0 0.0
2.430000 0.0 0.0
2.435000 0.0 0.0
2.440000 0.0 0.0
2.445000 0.0 0.0
2.450000 0.0 0.0
2.455000 0.0 0.0
2.460000 0.0 0.0
2.465000 0.0 0.0
2.470000 0.0 0.0
2.475000 0.0 0.0
2.480000 0.0 0.0
2.485000 0.0 0.0
2.490000 0.0 0.0
2.495000 0.0 0.0
2.500000 0.0 0.0
2.505000 0.0 0.0
2.510000 0.0 0.0
2.515000 0.0 0.0
2.520000 0.0 0.0
2.525000 0.0 0.0
2.530000 0.0 0.0
2.535000 0.0 0.0
2.540000 0.0 0.0
2.545000 0.0 0.0
2.550000 0.0 0.0
2.555000 0.0 0.0
2.560000 0.0 0.0
2.565000 0.0 0.0
2.570000 0.0 0.0
2.575000 0.0 0.0
2.580000 0.0 0.0
2.585000 0.0 0.0
2.590000 0.0 0.0
2.595000 0.0 0.0
2.600000 0.0 0.0
2.605000 0.0 0.0
2.610000 0.0 0.0
2.615000 0.0 0.0
2.620000 0.0 0.0
2.625000 0.0 0.0
2.630000 0.0 0.0
2.635000 0.0 0.0
2.640000 0.0 0.0
2.645000 0.0 0.0
2.650000 0.0 0.0
2.655000 0.0 0.0
2.660000 0.0 0.0
2.665000 0.0 0.0
2.670000 0.0 0.0
2.675000 0.0 0.0
2.680000 0.0 0.0
2.685000 0.0 0.0
2.690000 0.0 0.0
2.695000 0.0 0.0
2.700000 0.0 0.0
2.705000 0.0 0.0
2.710000 0.0 0.0
2.715000 0.0 0.0
2.720000 0.0 0.0
2.725000 0.0 0.0
2.730000 0.0 0.0
2.735000 0.0 0.0
2.740000 0.0 0.0
2.745000 0.0 0.0
2.750000 0.0 0.0
2.755000 0.0 0.0
2.760000 0.0 0.0
2.765000 0.0 0.0
2.770000 0.0 0.0
2.775000 0.0 0.0
2.780000 0.0 0.0
2.785000 0.0 0.0
2.790000 0.0 0.0
2.795000 0.0 0.0
2.800000 0.0 0.0
2.805000 0.0 0.0
2.810000 0.0 0.0
2.815000 0.0 0.0
2.820000 0.0 0.0
2.825000 0.0 0.0
2.830000 0.0 0.0
2.835000 0.0 0.0
2.840000 0.0 0.0
2.845000 0.0 0.0
2.850000 0.0 0.0
2.855000 0.0 0.0
2.860000 0.0 0.0
[...]
      <PointData Scalars="Temperature">
        <DataArray type="Float32" Name="Temperature" format="ascii">
308.150000
307.116599
306.083451
305.050809
304.018925
302.988052
301.958441
300.930341
299.904003
298.879675
297.857602
296.838030
295.821203
294.807360
293.796743
292.789586
291.786125
290.786591
289.791212
288.800214
287.813819
286.832247
285.855711
284.884423
283.918589
282.958413
282.004091
281.055816
280.113774
279.178149
278.249115
277.326842
276.411493
275.503235
274.603154
273.764275
273.285858
273.065456
272.928731
272.826119
272.741061
272.666377
272.598380
272.534945
272.474753
272.416934
272.360892
272.306205
272.252566
272.199750
272.147587
272.095949
272.044739
271.993881
271.943318
271.893005
271.842907
271.792998
271.743257
271.693668
271.644218
271.594899
271.545704
271.496626
271.447663
271.398810
271.350067
271.301433
271.252906
271.204486
271.156173
271.107968
271.059871
271.011883
270.964005
270.916238
270.868582
270.821038
270.773609
270.726294
270.679095
270.632014
270.585051
270.538208
270.491485
270.444884
270.398407
270.352053
270.305826
270.259725
270.213751
270.167907
270.122193
270.076610
270.031159
269.985842
269.940659
269.895612
269.850702
269.805929
269.761295
269.716801
269.672448
269.628237
269.584169
269.540245
269.496465
269.452832
269.409345
269.366006
269.322815
269.279774
269.236884
269.194145
269.151558
269.109124
269.066844
269.024719
268.982750
268.940936
268.899280
268.857782
268.816443
268.775263
268.734244
268.693385
268.652688
268.612153
268.571782
268.531574
268.491531
268.451652
268.411939
268.372393
268.333013
268.293801
268.254757
268.215882
268.177175
268.138639
268.100272
268.062077
268.024053
267.986200
267.948519
267.911012
267.873677
267.836516
267.799529
267.762716
267.726078
267.689615
267.653327
267.617215
267.581280
267.545520
267.509938
267.474533
267.439305
267.404254
267.369382
267.334688
267.300172
267.265834
267.231676
267.197696
267.163896
267.130275
267.096833
267.063571
267.030489
266.997586
266.964863
266.932321
266.899959
266.867776
266.835774
266.803953
266.772311
266.740850
266.709569
266.678469
266.647549
266.616809
266.586249
266.555870
266.525670
266.495651
266.465811
266.436152
266.406672
266.377371
266.348250
266.319309
266.290547
266.261963
266.233558
266.205332
266.177285
266.149415
266.121724
266.094210
266.066874
266.039715
266.012734
265.985928
265.959300
265.932847
265.906571
265.880469
265.854544
265.828793
265.803216
265.777814
265.752585
265.727530
265.702649
265.677940
265.653403
265.629038
265.604845
265.580822
265.556971
265.533289
265.509778
265.486436
265.463262
265.440257
265.417420
265.394751
265.372248
265.349912
265.327742
265.305737
265.283897
265.262222
265.240710
265.219362
265.198176
265.177153
265.156292
265.135591
265.115051
265.094671
265.074451
265.054389
265.034485
265.014739
264.995150
264.975717
264.956440
264.937318
264.918351
264.899537
264.880877
264.862369
264.844013
264.825809
264.807755
264.789850
264.772096
264.754490
264.737031
264.719720
264.702556
264.685537
264.668664
264.651935
264.635350
264.618908
264.602608
264.586451
264.570434
264.554557
264.538820
264.523222
264.507761
264.492439
264.477252
264.462202
264.447287
264.432507
264.417860
264.403346
264.388964
264.374714
264.360595
264.346605
264.332745
264.319013
264.305409
264.291932
264.278582
264.265356
264.252256
264.239280
264.226426
264.213695
264.201086
264.188598
264.176230
264.163982
264.151852
264.139840
264.127945
264.116166
264.104504
264.092955
264.081521
264.070201
264.058993
264.047896
264.036911
264.026036
264.015271
264.004614
263.994065
263.983624
263.973289
263.963060
263.952935
263.942915
263.932999
263.923185
263.913473
263.903862
263.894352
263.884941
263.875629
263.866416
263.857300
263.848280
263.839357
263.830529
263.821795
263.813156
263.804609
263.796154
263.787791
263.779519
263.771338
263.763245
263.755241
263.747325
263.739497
263.731755
263.724098
263.716527
263.709040
263.701637
263.694317
263.687079
263.679923
263.672848
263.665852
263.658937
263.652100
263.645341
263.638660
263.632056
263.625527
263.619074
263.612696
263.606392
263.600162
263.594004
263.587918
263.581904
263.575961
263.570088
263.564284
263.558549
263.552882
263.547283
263.541751
263.536286
263.530886
263.525551
263.520281
263.515074
263.509931
263.504850
263.499832
263.494875
263.489978
263.485142
263.480366
263.475649
263.470990
263.466389
263.461845
263.457358
263.452928
263.448553
263.444233
263.439967
263.435756
263.431597
263.427492
263.423439
263.419438
263.415488
263.411588
263.407739
263.403939
263.400189
263.396487
263.392833
263.389227
263.385667
263.382155
263.378688
263.375267
263.371891
263.368559
263.365272
263.362028
263.358827
263.355669
263.352553
263.349479
263.346446
263.343454
263.340502
263.337590
263.334718
263.331884
263.329089
263.326332
263.323613
263.320931
263.318285
263.315676
263.313103
263.310566
263.308064
263.305596
263.303163
263.300763
263.298397
263.296065
263.293765
263.291497
263.289261
263.287057
263.284884
263.282741
263.280630
263.278548
263.276496
263.274473
263.272479
263.270514
263.268577
263.266669
263.264787
263.262933
263.261106
263.259305
263.257531
263.255782
263.254059
263.252362
263.250689
263.249041
263.247417
263.245817
263.244241
263.242688
263.241159
263.239652
263.238168
263.236705
263.235265
263.233847
263.232449
263.231073
263.229718
263.228383
263.227068
263.225774
263.224499
263.223243
263.222007
263.220789
263.219591
263.218411
263.217248
263.216104
263.214978
263.213869
263.212777
263.211702
263.210644
263.209603
263.208578
263.207568
263.206575
263.205597
263.204635
263.203688
263.202756
263.201839
263.200936
263.200048
263.199173
263.198313
263.197467
263.196634
263.195814
263.195008
263.194214
263.193434
263.192666
263.191910
263.191167
263.190436
263.189717
263.189009
263.188313
263.187628
263.186955
263.186293
263.185642
263.185001
263.184371
263.183751
263.183142
263.182543
263.181954
263.181374
263.180805
263.180244
263.179694
263.179152
263.178619
263.178096
263.177581
263.177075
263.176578
263.176089
263.175608
263.175136
263.174672
263.174215
263.173766
263.173325
263.172892
263.172466
263.172047
263.171636
263.171232
263.170834
263.170444
263.170060
263.169683
263.169313
263.168949
263.168591
263.168240
263.167895
263.167556
263.167223
263.166895
263.166574
263.166258
263.165948
263.165643
263.165344
263.165050
263.164761
263.164478
263.164199
263.163926
263.163657
263.163393
263.163134
263.162880
263.162630
263.162385
263.162144
263.161907
263.161675
263.161447
263.161224
263.161004
263.160788
263.160576
263.160369
263.160165
263.159964
263.159768
263.159575
263.159385
263.159199
263.159017
263.158838
263.158662
263.158489
263.158320
263.158154
263.157991
263.157831
263.157674
263.157520
263.157369
263.157221
263.157075
263.156933
263.156793
263.156655
263.156520
263.156388
263.156259
263.156131
263.156007
263.155884
263.155764
263.155646
263.155531
263.155417
263.155306
263.155197
263.155091
263.154986
263.154883
263.154782
263.154683
263.154587
263.154491
263.154398
263.154307
263.154217
263.154130
263.154044
263.153959
263.153876
263.153795
263.153716
263.153638
263.153561
263.153487
263.153413
263.153341
263.153271
263.153202
263.153134
263.153067
263.153002
263.152939
263.152876
263.152815
263.152755
263.152696
263.152638
263.152582
263.152527
263.152472
263.152419
263.152367
263.152316
263.152266
263.152217
263.152170
263.152123
263.152077
263.152032
263.151987
263.151944
263.151902
263.151860
263.151820
263.151780
263.151741
263.151703
263.151665
263.151629
263.151593
263.151558
263.151523
263.151490
263.151457
263.151424
263.151393
263.151362
263.151332
263.151302
263.151273
263.151244
263.151216
263.151189
263.151162
263.151136
263.151111
263.151086
263.151061
263.151037
263.151014
263.150991
263.150968
263.150946
263.150924
263.150903
263.150882
263.150862
263.150842
263.150823
263.150804
263.150785
263.150767
263.150749
263.150732
263.150715
263.150698
263.150682
263.150666
263.150650
263.150634
263.150619
263.150605
263.150590
263.150576
263.150562
263.150549
263.150536
263.150523
263.150510
263.150497
263.150485
263.150473
263.150462
263.150450
263.150439
263.150428
263.150417
263.150407
263.150397
263.150386
263.150377
263.150367
263.150357
263.150348
263.150339
263.150330
263.150321
263.150313
263.150304
263.150296
263.150288
263.150280
263.150272
263.150264
263.150257
263.150249
263.150242
263.150235
263.150228
263.150221
263.150215
263.150208
263.150201
263.150195
263.150189
263.150183
263.150177
263.150171
263.150165
263.150159
263.150153
263.150148
263.150142
263.150137
263.150131
263.150126
263.150121
263.150115
263.150110
263.150105
263.150100
263.150095
263.150090
263.150086
263.150081
263.150076
263.150071
263.150067
263.150062
263.150058
263.150053
263.150048
263.150044
263.150040
263.150035
263.150031
263.150026
263.150022
263.150017
263.150013
263.150009
263.150004
263.150000
        </DataArray>
      </PointData>
      <CellData>
      </CellData>
    </Piece>
  </UnstructuredGrid>
</VTKFile>
