<?xml version="1.0"?>
<VTKFile type="UnstructuredGrid" version="0.1" byte_order="LittleEndian">
  <UnstructuredGrid>
    <Piece NumberOfPoints="801" NumberOfCells="800">
      <Points>
        <DataArray type="Float32" NumberOfComponents="3" format="ascii">
0.000000 0.0 0.0
0.005000 0.0 0.0
0.010000 0.0 0.0
0.015000 0.0 0.0
0.020000 0.0 0.0
0.025000 0.0 0.0
0.030000 0.0 0.0
0.035000 0.0 0.0
0.040000 0.0 0.0
0.045000 0.0 0.0
0.050000 0.0 0.0
0.055000 0.0 0.0
0.060000 0.0 0.0
0.065000 0.0 0.0
0.070000 0.0 0.0
0.075000 0.0 0.0
0.080000 0.0 0.0
0.085000 0.0 0.0
0.090000 0.0 0.0
0.095000 0.0 0.0
0.100000 0.0 0.0
0.105000 0.0 0.0
0.110000 0.0 0.0
0.115000 0.0 0.0
0.120000 0.0 0.0
0.125000 0.0 0.0
0.130000 0.0 0.0
0.135000 0.0 0.0
0.140000 0.0 0.0
0.145000 0.0 0.0
0.150000 0.0 0.0
0.155000 0.0 0.0
0.160000 0.0 0.0
0.165000 0.0 0.0
0.170000 0.0 0.0
0.175000 0.0 0.0
0.180000 0.0 0.0
0.185000 0.0 0.0
0.190000 0.0 0.0
0.195000 0.0 0.0
0.200000 0.0 0.0
0.205000 0.0 0.0
0.210000 0.0 0.0
0.215000 0.0 0.0
0.220000 0.0 0.0
0.225000 0.0 0.0
0.230000 0.0 0.0
0.235000 0.0 0.0
0.240000 0.0 0.0
0.245000 0.0 0.0
0.250000 0.0 0.0
0.255000 0.0 0.0
0.260000 0.0 0.0
0.265000 0.0 0.0
0.270000 0.0 0.0
0.275000 0.0 0.0
0.280000 0.0 0.0
0.285000 0.0 0.0
0.290000 0.0 0.0
0.295000 0.0 0.0
0.300000 0.0 0.0
0.305000 0.0 0.0
0.310000 0.0 0.0
0.315000 0.0 0.0
0.320000 0.0 0.0
0.325000 0.0 0.0
0.330000 0.0 0.0
0.335000 0.0 0.0
0.340000 0.0 0.0
0.345000 0.0 0.0
0.350000 0.0 0.0
0.355000 0.0 0.0
0.360000 0.0 0.0
0.365000 0.0 0.0
0.370000 0.0 0.0
0.375000 0.0 0.0
0.380000 0.0 0.0
0.385000 0.0 0.0
0.390000 0.0 0.0
0.395000 0.0 0.0
0.400000 0.0 0.0
0.405000 0.0 0.0
0.410000 0.0 0.0
0.415000 0.0 0.0
0.420000 0.0 0.0
0.425000 0.0 0.0
0.430000 0.0 0.0
0.435000 0.0 0.0
0.440000 0.0 0.0
0.445000 0.0 0.0
0.450000 0.0 0.0
0.455000 0.0 0.0
0.460000 0.0 0.0
0.465000 0.0 0.0
0.470000 0.0 0.0
0.475000 0.0 0.0
0.480000 0.0 0.0
0.485000 0.0 0.0
0.490000 0.0 0.0
0.495000 0.0 0.0
0.500000 0.0 0.0
0.505000 0.0 0.0
0.510000 0.0 0.0
0.515000 0.0 0.0
0.520000 0.0 0.0
0.525000 0.0 0.0
0.530000 0.0 0.0
0.535000 0.0 0.0
0.540000 0.0 0.0
0.545000 0.0 0.0
0.550000 0.0 0.0
0.555000 0.0 0.0
0.560000 0.0 0.0
0.565000 0.0 0.0
0.570000 0.0 0.0
0.575000 0.0 0.0
0.580000 0.0 0.0
0.585000 0.0 0.0
0.590000 0.0 0.0
0.595000 0.0 0.0
0.600000 0.0 0.0
0.605000 0.0 0.0
0.610000 0.0 0.0
0.615000 0.0 0.0
0.620000 0.0 0.0
0.625000 0.0 0.0
0.630000 0.0 0.0
0.635000 0.0 0.0
0.640000 0.0 0.0
0.645000 0.0 0.0
0.650000 0.0 0.0
0.655000 0.0 0.0
0.660000 0.0 0.0
0.665000 0.0 0.0
0.670000 0.0 0.0
0.675000 0.0 0.0
0.680000 0.0 0.0
0.685000 0.0 0.0
0.690000 0.0 0.0
0.695000 0.0 0.0
0.700000 0.0 0.0
0.705000 0.0 0.0
0.710000 0.0 0.0
0.715000 0.0 0.0
0.720000 0.0 0.0
0.725000 0.0 0.0
0.730000 0.0 0.0
0.735000 0.0 0.0
0.740000 0.0 0.0
0.745000 0.0 0.0
0.750000 0.0 0.0
0.755000 0.0 0.0
0.760000 0.0 0.0
0.765000 0.0 0.0
0.770000 0.0 0.0
0.775000 0.0 0.0
0.780000 0.0 0.0
0.785000 0.0 0.0
0.790000 0.0 0.0
0.795000 0.0 0.0
0.800000 0.0 0.0
0.805000 0.0 0.0
0.810000 0.0 0.0
0.815000 0.0 0.0
0.820000 0.0 0.0
0.825000 0.0 0.0
0.830000 0.0 0.0
0.835000 0.0 0.0
0.840000 0.0 0.0
0.845000 0.0 0.0
0.850000 0.0 0.0
0.855000 0.0 0.0
0.860000 0.0 0.0
0.865000 0.0 0.0
0.870000 0.0 0.0
0.875000 0.0 0.0
0.880000 0.0 0.0
0.885000 0.0 0.0
0.890000 0.0 0.0
0.895000 0.0 0.0
0.900000 0.0 0.0
0.905000 0.0 0.0
0.910000 0.0 0.0
0.915000 0.0 0.0
0.920000 0.0 0.0
0.925000 0.0 0.0
0.930000 0.0 0.0
0.935000 0.0 0.0
0.940000 0.0 0.0
0.945000 0.0 0.0
0.950000 0.0 0.0
0.955000 0.0 0.0
0.960000 0.0 0.0
0.965000 0.0 0.0
0.970000 0.0 0.0
0.975000 0.0 0.0
0.980000 0.0 0.0
0.985000 0.0 0.0
0.990000 0.0 0.0
0.995000 0.0 0.0
1.000000 0.0 0.0
1.005000 0.0 0.0
1.010000 0.0 0.0
1.015000 0.0 0.0
1.020000 0.0 0.0
1.025000 0.0 0.0
1.030000 0.0 0.0
1.035000 0.0 0.0
1.040000 0.0 0.0
1.045000 0.0 0.0
1.050000 0.0 0.0
1.055000 0.0 0.0
1.060000 0.0 0.0
1.065000 0.0 0.0
1.070000 0.0 0.0
1.075000 0.0 0.0
1.080000 0.0 0.0
1.085000 0.0 0.0
1.090000 0.0 0.0
1.095000 0.0 0.0
1.100000 0.0 0.0
1.105000 0.0 0.0
1.110000 0.0 0.0
1.115000 0.0 0.0
1.120000 0.0 0.0
1.125000 0.0 0.0
1.130000 0.0 0.0
1.135000 0.0 0.0
1.140000 0.0 0.0
1.145000 0.0 0.0
1.150000 0.0 0.0
1.155000 0.0 0.0
1.160000 0.0 0.0
1.165000 0.0 0.0
1.170000 0.0 0.0
1.175000 0.0 0.0
1.180000 0.0 0.0
1.185000 0.0 0.0
1.190000 0.0 0.0
1.195000 0.0 0.0
1.200000 0.0 0.0
1.205000 0.0 0.0
1.210000 0.0 0.0
1.215000 0.0 0.0
1.220000 0.0 0.0
1.225000 0.0 0.0
1.230000 0.0 0.0
1.235000 0.0 0.0
1.240000 0.0 0.0
1.245000 0.0 0.0
1.250000 0.0 0.0
1.255000 0.0 0.0
1.260000 0.0 0.0
1.265000 0.0 0.0
1.270000 0.0 0.0
1.275000 0.0 0.0
1.280000 0.0 0.0
1.285000 0.0 0.0
1.290000 0.0 0.0
1.295000 0.0 0.0
1.300000 0.0 0.0
1.305000 0.0 0.0
1.310000 0.0 0.0
1.315000 0.0 0.0
1.320000 0.0 0.0
1.325000 0.0 0.0
1.330000 0.0 0.0
1.335000 0.0 0.0
1.340000 0.0 0.0
1.345000 0.0 0.0
1.350000 0.0 0.0
1.355000 0.0 0.0
1.360000 0.0 0.0
1.365000 0.0 0.0
1.370000 0.0 0.0
1.375000 0.0 0.0
1.380000 0.0 0.0
1.385000 0.0 0.0
1.390000 0.0 0.0
1.395000 0.0 0.0
1.400000 0.0 0.0
1.405000 0.0 0.0
1.410000 0.0 0.0
1.415000 0.0 0.0
1.420000 0.0 0.0
1.425000 0.0 0.0
1.430000 0.0 0.0
1.435000 0.0 0.0
1.440000 0.0 0.0
1.445000 0.0 0.0
1.450000 0.0 0.0
1.455000 0.0 0.0
1.460000 0.0 0.0
1.465000 0.0 0.0
1.470000 0.0 0.0
1.475000 0.0 0.0
1.480000 0.0 0.0
1.485000 0.0 0.0
1.490000 0.0 0.0
1.495000 0.0 0.0
1.500000 0.0 0.0
1.505000 0.0 0.0
1.510000 0.0 0.0
1.515000 0.0 0.0
1.520000 0.0 0.0
1.525000 0.0 0.0
1.530000 0.0 0.0
1.535000 0.0 0.0
1.540000 0.0 0.0
1.545000 0.0 0.0
1.550000 0.0 0.0
1.555000 0.0 0.0
1.560000 0.0 0.0
1.565000 0.0 0.0
1.570000 0.0 0.0
1.575000 0.0 0.0
1.580000 0.0 0.0
1.585000 0.0 0.0
1.590000 0.0 0.0
1.595000 0.0 0.0
1.600000 0.0 0.0
1.605000 0.0 0.0
1.610000 0.0 0.0
1.615000 0.0 0.0
1.620000 0.0 0.0
1.625000 0.0 0.0
1.630000 0.0 0.0
1.635000 0.0 0.0
1.640000 0.0 0.0
1.645000 0.0 0.0
1.650000 0.0 0.0
1.655000 0.0 0.0
1.660000 0.0 0.0
1.665000 0.0 0.0
1.670000 0.0 0.0
1.675000 0.0 0.0
1.680000 0.0 0.0
1.685000 0.0 0.0
1.690000 0.0 0.0
1.695000 0.0 0.0
1.700000 0.0 0.0
1.705000 0.0 0.0
1.710000 0.0 0.0
1.715000 0.0 0.0
1.720000 0.0 0.0
1.725000 0.0 0.0
1.730000 0.0 0.0
1.735000 0.0 0.0
1.740000 0.0 0.0
1.745000 0.0 0.0
1.750000 0.0 0.0
1.755000 0.0 0.0
1.760000 0.0 0.0
1.765000 0.0 0.0
1.770000 0.0 0.0
1.775000 0.0 0.0
1.780000 0.0 0.0
1.785000 0.0 0.0
1.790000 0.0 0.0
1.795000 0.0 0.0
1.800000 0.0 0.0
1.805000 0.0 0.0
1.810000 0.0 0.0
1.815000 0.0 0.0
1.820000 0.0 0.0
1.825000 0.0 0.0
1.830000 0.0 0.0
1.835000 0.0 0.0
1.840000 0.0 0.0
1.845000 0.0 0.0
1.850000 0.0 0.0
1.855000 0.0 0.0
1.860000 0.0 0.0
1.865000 0.0 0.0
1.870000 0.0 0.0
1.875000 0.0 0.0
1.880000 0.0 0.0
1.885000 0.0 0.0
1.890000 0.0 0.0
1.895000 0.0 0.0
1.900000 0.0 0.0
1.905000 0.0 0.0
1.910000 0.0 0.0
1.915000 0.0 0.0
1.920000 0.0 0.0
1.925000 0.0 0.0
1.930000 0.0 0.0
1.935000 0.0 0.0
1.940000 0.0 0.0
1.945000 0.0 0.0
1.950000 0.0 0.0
1.955000 0.0 0.0
1.960000 0.0 0.0
1.965000 0.0 0.0
1.970000 0.0 0.0
1.975000 0.0 0.0
1.980000 0.0 0.0
1.985000 0.0 0.0
1.990000 0.0 0.0
1.995000 0.0 0.0
2.000000 0.0 0.0
2.005000 0.0 0.0
2.010000 0.0 0.0
2.015000 0.0 0.0
2.020000 0.0 0.0
2.025000 0.0 0.0
2.030000 0.0 0.0
2.035000 0.0 0.0
2.040000 0.0 0.0
2.045000 0.0 0.0
2.050000 0.0 0.0
2.055000 0.0 0.0
2.060000 0.0 0.0
2.065000 0.0 0.0
2.070000 0.0 0.0
2.075000 0.0 0.0
2.080000 0.0 0.0
2.085000 0.0 0.0
2.090000 0.0 0.0
2.095000 0.0 0.0
2.100000 0.0 0.0
2.105000 0.0 0.0
2.110000 0.0 0.0
2.115000 0.0 0.0
2.120000 0.0 0.0
2.125000 0.0 0.0
2.130000 0.0 0.0
2.135000 0.0 0.0
2.140000 0.0 0.0
2.145000 0.0 0.0
2.150000 0.0 0.0
2.155000 0.0 0.0
2.160000 0.0 0.0
2.165000 0.0 0.0
2.170000 0.0 0.0
2.175000 0.0 0.0
2.180000 0.0 0.0
2.185000 0.0 0.0
2.190000 0.0 0.0
2.195000 0.0 0.0
2.200000 0.0 0.0
2.205000 0.0 0.0
2.210000 0.0 0.0
2.215000 0.0 0.0
2.220000 0.0 0.0
2.225000 0.0 0.0
2.230000 0.0 0.0
2.235000 0.0 0.0
2.240000 0.0 0.0
2.245000 0.0 0.0
2.250000 0.0 0.0
2.255000 0.0 0.0
2.260000 0.0 0.0
2.265000 0.0 0.0
2.270000 0.0 0.0
2.275000 0.0 0.0
2.280000 0.0 0.0
2.285000 0.0 0.0
2.290000 0.0 0.0
2.295000 0.0 0.0
2.300000 0.0 0.0
2.305000 0.0 0.0
2.310000 0.0 0.0
2.315000 0.0 0.0
2.320000 0.0 0.0
2.325000 0.0 0.0
2.330000 0.0 0.0
2.335000 0.0 0.0
2.340000 0.0 0.0
2.345000 0.0 0.0
2.350000 0.0 0.0
2.355000 0.0 0.0
2.360000 0.0 0.0
2.365000 0.0 0.0
2.370000 0.0 0.0
2.375000 0.0 0.0
2.380000 0.0 0.0
2.385000 0.0 0.0
2.390000 0.0 0.0
2.395000 0.0 0.0
2.400000 0.0 0.0
2.405000 0.0 0.0
2.410000 0.0 0.0
2.415000 0.0 0.0
2.420000 0.0 0.0
2.425000 0.0 0.0
2.430000 0.0 0.0
2.435000 0.0 0.0
2.440000 0.0 0.0
2.445000 0.0 0.0
2.450000 0.0 0.0
2.455000 0.0 0.0
2.460000 0.0 0.0
2.465000 0.0 0.0
2.470000 0.0 0.0
2.475000 0.0 0.0
2.480000 0.0 0.0
2.485000 0.0 0.0
2.490000 0.0 0.0
2.495000 0.0 0.0
2.500000 0.0 0.0
2.505000 0.0 0.0
2.510000 0.0 0.0
2.515000 0.0 0.0
2.520000 0.0 0.0
2.525000 0.0 0.0
2.530000 0.0 0.0
2.535000 0.0 0.0
2.540000 0.0 0.0
2.545000 0.0 0.0
2.550000 0.0 0.0
2.555000 0.0 0.0
2.560000 0.0 0.0
2.565000 0.0 0.0
2.570000 0.0 0.0
2.575000 0.0 0.0
2.580000 0.0 0.0
2.585000 0.0 0.0
2.590000 0.0 0.0
2.595000 0.0 0.0
2.600000 0.0 0.0
2.605000 0.0 0.0
2.610000 0.0 0.0
2.615000 0.0 0.0
2.620000 0.0 0.0
2.625000 0.0 0.0
2.630000 0.0 0.0
2.635000 0.0 0.0
2.640000 0.0 0.0
2.645000 0.0 0.0
2.650000 0.0 0.0
2.655000 0.0 0.0
2.660000 0.0 0.0
2.665000 0.0 0.0
2.670000 0.0 0.0
2.675000 0.0 0.0
2.680000 0.0 0.0
2.685000 0.0 0.0
2.690000 0.0 0.0
2.695000 0.0 0.0
2.700000 0.0 0.0
2.705000 0.0 0.0
2.710000 0.0 0.0
2.715000 0.0 0.0
2.720000 0.0 0.0
2.725000 0.0 0.0
2.730000 0.0 0.0
2.735000 0.0 0.0
2.740000 0.0 0.0
2.745000 0.0 0.0
2.750000 0.0 0.0
2.755000 0.0 0.0
2.760000 0.0 0.0
2.765000 0.0 0.0
2.770000 0.0 0.0
2.775000 0.0 0.0
2.780000 0.0 0.0
2.785000 0.0 0.0
2.790000 0.0 0.0
2.795000 0.0 0.0
2.800000 0.0 0.0
2.805000 0.0 0.0
2.810000 0.0 0.0
2.815000 0.0 0.0
2.820000 0.0 0.0
2.825000 0.0 0.0
2.830000 0.0 0.0
2.835000 0.0 0.0
2.840000 0.0 0.0
2.845000 0.0 0.0
2.850000 0.0 0.0
2.855000 0.0 0.0
2.860000 0.0 0.0
[...]
      <PointData Scalars="Temperature">
        <DataArray type="Float32" Name="Temperature" format="ascii">
308.150000
307.050890
305.952082
304.853881
303.756588
302.660504
301.565931
300.473167
299.382511
298.294260
297.208707
296.126146
295.046865
293.971153
292.899294
291.831570
290.768259
289.709636
288.655972
287.607533
286.564583
285.527380
284.496175
283.471218
282.452750
281.441005
280.436214
279.438598
278.448369
277.465732
276.490882
275.524013
274.566525
273.694705
273.242572
273.032994
272.899193
272.796837
272.710852
272.634597
272.564618
272.498916
272.436242
272.375773
272.316947
272.259365
272.202741
272.146865
272.091582
272.036775
271.982355
271.928256
271.874428
271.820833
271.767440
271.714228
271.661181
271.608285
271.555532
271.502914
271.450427
271.398066
271.345831
271.293719
271.241730
271.189863
271.138118
271.086497
271.035000
270.983628
270.932382
270.881264
270.830274
270.779413
270.728684
270.678088
270.627626
270.577300
270.527111
270.477060
270.427150
270.377381
270.327755
270.278274
270.228938
270.179750
270.130710
270.081821
270.033083
269.984498
269.936068
269.887793
269.839675
269.791715
269.743915
269.696275
269.648798
269.601484
269.554335
269.507352
269.460535
269.413887
269.367408
269.321100
269.274964
269.229000
269.183210
269.137595
269.092156
269.046894
269.001810
268.956905
268.912181
268.867637
268.823276
268.779097
268.735103
268.691293
268.647669
268.604231
268.560981
268.517919
268.475046
268.432363
268.389871
268.347570
268.305461
268.263546
268.221823
268.180295
268.138962
268.097825
268.056883
268.016139
267.975592
267.935243
267.895093
267.855141
267.815390
267.775838
267.736488
267.697338
267.658390
267.619644
267.581101
267.542760
267.504623
267.466689
267.428959
267.391434
267.354113
267.316997
267.280086
267.243381
267.206881
267.170587
267.134500
267.098618
267.062944
267.027476
266.992214
266.957160
266.922313
266.887673
266.853240
266.819014
266.784996
266.751185
266.717582
266.684186
266.650997
266.618015
266.585241
266.552674
266.520315
266.488162
266.456216
266.424477
266.392945
266.361619
266.330499
266.299586
266.268878
266.238377
266.208080
266.177990
266.148104
266.118422
266.088946
266.059673
266.030604
266.001739
265.973077
265.944618
265.916361
265.888306
265.860453
265.832801
265.805350
265.778100
265.751049
265.724199
265.697547
265.671094
265.644838
265.618781
265.592921
265.567257
265.541789
265.516517
265.491440
265.466557
265.441868
265.417372
265.393069
265.368958
265.345039
265.321310
265.297771
265.274422
265.251262
265.228290
265.205505
265.182908
265.160496
265.138270
265.116229
265.094372
265.072698
265.051207
265.029897
265.008769
264.987821
264.967053
264.946463
264.926052
264.905818
264.885760
264.865878
264.846171
264.826638
264.807279
264.788092
264.769076
264.750232
264.731557
264.713052
264.694714
264.676545
264.658541
264.640704
264.623031
264.605523
264.588177
264.570994
264.553972
264.537111
264.520409
264.503866
264.487481
264.471253
264.455180
264.439263
264.423500
264.407890
264.392433
264.377127
264.361971
264.346966
264.332108
264.317399
264.302836
264.288420
264.274148
264.260020
264.246036
264.232193
264.218492
264.204931
264.191509
264.178226
264.165080
264.152071
264.139198
264.126459
264.113853
264.101381
264.089040
264.076830
264.064751
264.052800
264.040977
264.029281
264.017712
264.006267
263.994947
263.983751
263.972677
263.961724
263.950892
263.940179
263.929585
263.919109
263.908750
263.898507
263.888379
263.878364
263.868463
263.858674
263.848997
263.839429
263.829972
263.820623
263.811381
263.802246
263.793218
263.784294
263.775474
263.766757
263.758143
263.749630
263.741217
263.732904
263.724690
263.716574
263.708554
263.700631
263.692803
263.685069
263.677429
263.669882
263.662426
263.655062
263.647787
263.640602
263.633505
263.626496
263.619574
263.612737
263.605986
263.599319
263.592735
263.586235
263.579816
263.573478
263.567220
263.561042
263.554943
263.548922
263.542977
263.537109
263.531317
263.525599
263.519956
263.514386
263.508888
263.503462
263.498107
263.492823
263.487608
263.482462
263.477384
263.472373
263.467429
263.462551
263.457739
263.452991
263.448306
263.443685
263.439127
263.434630
263.430194
263.425819
263.421504
263.417247
263.413049
263.408909
263.404826
263.400800
263.396829
263.392913
263.389053
263.385246
263.381492
263.377791
263.374143
263.370546
263.366999
263.363503
263.360057
263.356660
263.353312
263.350011
263.346758
263.343552
263.340392
263.337277
263.334208
263.331183
263.328203
263.325266
263.322372
263.319521
263.316711
263.313943
263.311216
263.308529
263.305882
263.303275
263.300706
263.298176
263.295684
263.293229
263.290811
263.288430
263.286084
263.283775
263.281500
263.279260
263.277054
263.274882
263.272743
263.270637
263.268564
263.266522
263.264512
263.262534
263.260586
263.258668
263.256780
263.254922
263.253093
263.251292
263.249520
263.247776
263.246060
263.244371
263.242708
263.241072
263.239462
263.237878
263.236319
263.234786
263.233277
263.231792
263.230331
263.228894
263.227480
263.226089
263.224721
263.223375
263.222051
263.220749
263.219468
263.218208
263.216970
263.215751
263.214553
263.213374
263.212216
263.211076
263.209956
263.208854
263.207771
263.206705
263.205658
263.204629
263.203617
263.202622
263.201644
263.200682
263.199737
263.198808
263.197895
263.196997
263.196115
263.195248
263.194396
263.193559
263.192736
263.191928
263.191133
263.190353
263.189586
263.188832
263.188091
263.187364
263.186649
263.185947
263.185257
263.184580
263.183914
263.183260
263.182618
263.181987
263.181368
263.180759
263.180162
263.179575
263.178998
263.178432
263.177877
263.177331
263.176795
263.176269
263.175752
263.175245
263.174747
263.174258
263.173778
263.173307
263.172844
263.172390
263.171945
263.171507
263.171078
263.170656
263.170243
263.169837
263.169439
263.169048
263.168664
263.168288
263.167918
263.167556
263.167200
263.166851
263.166509
263.166173
263.165843
263.165520
263.165203
263.164892
263.164586
263.164287
263.163993
263.163705
263.163423
263.163146
263.162874
263.162608
263.162346
263.162090
263.161839
263.161592
263.161351
263.161114
263.160881
263.160653
263.160430
263.160211
263.159997
263.159786
263.159580
263.159378
263.159179
263.158985
263.158795
263.158608
263.158425
263.158246
263.158070
263.157898
263.157729
263.157564
263.157402
263.157243
263.157087
263.156935
263.156785
263.156639
263.156496
263.156355
263.156217
263.156083
263.155950
263.155821
263.155694
263.155570
263.155449
263.155329
263.155213
263.155099
263.154987
263.154877
263.154770
263.154665
263.154562
263.154461
263.154362
263.154266
263.154171
263.154079
263.153988
263.153899
263.153812
263.153727
263.153644
263.153562
263.153483
263.153404
263.153328
263.153253
263.153180
263.153108
263.153038
263.152969
263.152902
263.152836
263.152772
263.152709
263.152648
263.152587
263.152528
263.152471
263.152414
263.152359
263.152305
263.152252
263.152200
263.152150
263.152100
263.152052
263.152004
263.151958
263.151913
263.151868
263.151825
263.151783
263.151741
263.151701
263.151661
263.151622
263.151584
263.151547
263.151511
263.151476
263.151441
263.151407
263.151374
263.151342
263.151310
263.151279
263.151249
263.151219
263.151190
263.151162
263.151135
263.151108
263.151081
263.151055
263.151030
263.151006
263.150982
263.150958
263.150935
263.150913
263.150891
263.150869
263.150848
263.150828
263.150808
263.150788
263.150769
263.150751
263.150732
263.150715
263.150697
263.150680
263.150664
263.150647
263.150632
263.150616
263.150601
263.150586
263.150572
263.150558
263.150544
263.150531
263.150518
263.150505
263.150492
263.150480
263.150468
263.150457
263.150445
263.150434
263.150423
263.150413
263.150402
263.150392
263.150383
263.150373
263.150364
263.150354
263.150346
263.150337
263.150328
263.150320
263.150312
263.150304
263.150296
263.150289
263.150281
263.150274
263.150267
263.150260
263.150254
263.150247
263.150241
263.150235
263.150228
263.150223
263.150217
263.150211
263.150206
263.150200
263.150195
263.150190
263.150185
263.150180
263.150175
263.150171
263.150166
263.150162
263.150157
263.150153
263.150149
263.150145
263.150141
263.150137
263.150134
263.150130
263.150127
263.150123
263.150120
263.150116
263.150113
263.150110
263.150107
263.150104
263.150101
263.150098
263.150095
263.150093
263.150090
263.150087
263.150085
263.150082
263.150080
263.150077
263.150075
263.150073
263.150071
263.150068
263.150066
263.150064
263.150062
263.150060
263.150058
263.150056
263.150054
263.150053
263.150051
263.150049
263.150047
263.150046
263.150044
263.150042
263.150041
263.150039
263.150037
263.150036
263.150034
263.150033
263.150032
263.150030
263.150029
263.150027
263.150026
263.150025
263.150023
263.150022
263.150021
263.150019
263.150018
263.150017
263.150016
263.150014
263.150013
263.150012
263.150011
263.150009
263.150008
263.150007
263.150006
263.150005
263.150004
263.150002
263.150001
263.150000
        </DataArray>
      </PointData>
      <CellData>
      </CellData>
    </Piece>
  </UnstructuredGrid>
</VTKFile>
