<?xml version="1.0"?>
<VTKFile type="UnstructuredGrid" version="0.1" byte_order="LittleEndian">
  <UnstructuredGrid>
    <Piece NumberOfPoints="801" NumberOfCells="800">
      <Points>
        <DataArray type="Float32" NumberOfComponents="3" format="ascii">
0.000000 0.0 0.0
0.005000 0.0 0.0
0.010000 0.0 0.0
0.015000 0.0 0.0
0.020000 0.0 0.0
0.025000 0.0 0.0
0.030000 0.0 0.0
0.035000 0.0 0.0
0.040000 0.0 0.0
0.045000 0.0 0.0
0.050000 0.0 0.0
0.055000 0.0 0.0
0.060000 0.0 0.0
0.065000 0.0 0.0
0.070000 0.0 0.0
0.075000 0.0 0.0
0.080000 0.0 0.0
0.085000 0.0 0.0
0.090000 0.0 0.0
0.095000 0.0 0.0
0.100000 0.0 0.0
0.105000 0.0 0.0
0.110000 0.0 0.0
0.115000 0.0 0.0
0.120000 0.0 0.0
0.125000 0.0 0.0
0.130000 0.0 0.0
0.135000 0.0 0.0
0.140000 0.0 0.0
0.145000 0.0 0.0
0.150000 0.0 0.0
0.155000 0.0 0.0
0.160000 0.0 0.0
0.165000 0.0 0.0
0.170000 0.0 0.0
0.175000 0.0 0.0
0.180000 0.0 0.0
0.185000 0.0 0.0
0.190000 0.0 0.0
0.195000 0.0 0.0
0.200000 0.0 0.0
0.205000 0.0 0.0
0.210000 0.0 0.0
0.215000 0.0 0.0
0.220000 0.0 0.0
0.225000 0.0 0.0
0.230000 0.0 0.0
0.235000 0.0 0.0
0.240000 0.0 0.0
0.245000 0.0 0.0
0.250000 0.0 0.0
0.255000 0.0 0.0
0.260000 0.0 0.0
0.265000 0.0 0.0
0.270000 0.0 0.0
0.275000 0.0 0.0
0.280000 0.0 0.0
0.285000 0.0 0.0
0.290000 0.0 0.0
0.295000 0.0 0.0
0.300000 0.0 0.0
0.305000 0.0 0.0
0.310000 0.0 0.0
0.315000 0.0 0.0
0.320000 0.0 0.0
0.325000 0.0 0.0
0.330000 0.0 0.0
0.335000 0.0 0.0
0.340000 0.0 0.0
0.345000 0.0 0.0
0.350000 0.0 0.0
0.355000 0.0 0.0
0.360000 0.0 0.0
0.365000 0.0 0.0
0.370000 0.0 0.0
0.375000 0.0 0.0
0.380000 0.0 0.0
0.385000 0.0 0.0
0.390000 0.0 0.0
0.395000 0.0 0.0
0.400000 0.0 0.0
0.405000 0.0 0.0
0.410000 0.0 0.0
0.415000 0.0 0.0
0.420000 0.0 0.0
0.425000 0.0 0.0
0.430000 0.0 0.0
0.435000 0.0 0.0
0.440000 0.0 0.0
0.445000 0.0 0.0
0.450000 0.0 0.0
0.455000 0.0 0.0
0.460000 0.0 0.0
0.465000 0.0 0.0
0.470000 0.0 0.0
0.475000 0.0 0.0
0.480000 0.0 0.0
0.485000 0.0 0.0
0.490000 0.0 0.0
0.495000 0.0 0.0
0.500000 0.0 0.0
0.505000 0.0 0.0
0.510000 0.0 0.0
0.515000 0.0 0.0
0.520000 0.0 0.0
0.525000 0.0 0.0
0.530000 0.0 0.0
0.535000 0.0 0.0
0.540000 0.0 0.0
0.545000 0.0 0.0
0.550000 0.0 0.0
0.555000 0.0 0.0
0.560000 0.0 0.0
0.565000 0.0 0.0
0.570000 0.0 0.0
0.575000 0.0 0.0
0.580000 0.0 0.0
0.585000 0.0 0.0
0.590000 0.0 0.0
0.595000 0.0 0.0
0.600000 0.0 0.0
0.605000 0.0 0.0
0.610000 0.0 0.0
0.615000 0.0 0.0
0.620000 0.0 0.0
0.625000 0.0 0.0
0.630000 0.0 0.0
0.635000 0.0 0.0
0.640000 0.0 0.0
0.645000 0.0 0.0
0.650000 0.0 0.0
0.655000 0.0 0.0
0.660000 0.0 0.0
0.665000 0.0 0.0
0.670000 0.0 0.0
0.675000 0.0 0.0
0.680000 0.0 0.0
0.685000 0.0 0.0
0.690000 0.0 0.0
0.695000 0.0 0.0
0.700000 0.0 0.0
0.705000 0.0 0.0
0.710000 0.0 0.0
0.715000 0.0 0.0
0.720000 0.0 0.0
0.725000 0.0 0.0
0.730000 0.0 0.0
0.735000 0.0 0.0
0.740000 0.0 0.0
0.745000 0.0 0.0
0.750000 0.0 0.0
0.755000 0.0 0.0
0.760000 0.0 0.0
0.765000 0.0 0.0
0.770000 0.0 0.0
0.775000 0.0 0.0
0.780000 0.0 0.0
0.785000 0.0 0.0
0.790000 0.0 0.0
0.795000 0.0 0.0
0.800000 0.0 0.0
0.805000 0.0 0.0
0.810000 0.0 0.0
0.815000 0.0 0.0
0.820000 0.0 0.0
0.825000 0.0 0.0
0.830000 0.0 0.0
0.835000 0.0 0.0
0.840000 0.0 0.0
0.845000 0.0 0.0
0.850000 0.0 0.0
0.855000 0.0 0.0
0.860000 0.0 0.0
0.865000 0.0 0.0
0.870000 0.0 0.0
0.875000 0.0 0.0
0.880000 0.0 0.0
0.885000 0.0 0.0
0.890000 0.0 0.0
0.895000 0.0 0.0
0.900000 0.0 0.0
0.905000 0.0 0.0
0.910000 0.0 0.0
0.915000 0.0 0.0
0.920000 0.0 0.0
0.925000 0.0 0.0
0.930000 0.0 0.0
0.935000 0.0 0.0
0.940000 0.0 0.0
0.945000 0.0 0.0
0.950000 0.0 0.0
0.955000 0.0 0.0
0.960000 0.0 0.0
0.965000 0.0 0.0
0.970000 0.0 0.0
0.975000 0.0 0.0
0.980000 0.0 0.0
0.985000 0.0 0.0
0.990000 0.0 0.0
0.995000 0.0 0.0
1.000000 0.0 0.0
1.005000 0.0 0.0
1.010000 0.0 0.0
1.015000 0.0 0.0
1.020000 0.0 0.0
1.025000 0.0 0.0
1.030000 0.0 0.0
1.035000 0.0 0.0
1.040000 0.0 0.0
1.045000 0.0 0.0
1.050000 0.0 0.0
1.055000 0.0 0.0
1.060000 0.0 0.0
1.065000 0.0 0.0
1.070000 0.0 0.0
1.075000 0.0 0.0
1.080000 0.0 0.0
1.085000 0.0 0.0
1.090000 0.0 0.0
1.095000 0.0 0.0
1.100000 0.0 0.0
1.105000 0.0 0.0
1.110000 0.0 0.0
1.115000 0.0 0.0
1.120000 0.0 0.0
1.125000 0.0 0.0
1.130000 0.0 0.0
1.135000 0.0 0.0
1.140000 0.0 0.0
1.145000 0.0 0.0
1.150000 0.0 0.0
1.155000 0.0 0.0
1.160000 0.0 0.0
1.165000 0.0 0.0
1.170000 0.0 0.0
1.175000 0.0 0.0
1.180000 0.0 0.0
1.185000 0.0 0.0
1.190000 0.0 0.0
1.195000 0.0 0.0
1.200000 0.0 0.0
1.205000 0.0 0.0
1.210000 0.0 0.0
1.215000 0.0 0.0
1.220000 0.0 0.0
1.225000 0.0 0.0
1.230000 0.0 0.0
1.235000 0.0 0.0
1.240000 0.0 0.0
1.245000 0.0 0.0
1.250000 0.0 0.0
1.255000 0.0 0.0
1.260000 0.0 0.0
1.265000 0.0 0.0
1.270000 0.0 0.0
1.275000 0.0 0.0
1.280000 0.0 0.0
1.285000 0.0 0.0
1.290000 0.0 0.0
1.295000 0.0 0.0
1.300000 0.0 0.0
1.305000 0.0 0.0
1.310000 0.0 0.0
1.315000 0.0 0.0
1.320000 0.0 0.0
1.325000 0.0 0.0
1.330000 0.0 0.0
1.335000 0.0 0.0
1.340000 0.0 0.0
1.345000 0.0 0.0
1.350000 0.0 0.0
1.355000 0.0 0.0
1.360000 0.0 0.0
1.365000 0.0 0.0
1.370000 0.0 0.0
1.375000 0.0 0.0
1.380000 0.0 0.0
1.385000 0.0 0.0
1.390000 0.0 0.0
1.395000 0.0 0.0
1.400000 0.0 0.0
1.405000 0.0 0.0
1.410000 0.0 0.0
1.415000 0.0 0.0
1.420000 0.0 0.0
1.425000 0.0 0.0
1.430000 0.0 0.0
1.435000 0.0 0.0
1.440000 0.0 0.0
1.445000 0.0 0.0
1.450000 0.0 0.0
1.455000 0.0 0.0
1.460000 0.0 0.0
1.465000 0.0 0.0
1.470000 0.0 0.0
1.475000 0.0 0.0
1.480000 0.0 0.0
1.485000 0.0 0.0
1.490000 0.0 0.0
1.495000 0.0 0.0
1.500000 0.0 0.0
1.505000 0.0 0.0
1.510000 0.0 0.0
1.515000 0.0 0.0
1.520000 0.0 0.0
1.525000 0.0 0.0
1.530000 0.0 0.0
1.535000 0.0 0.0
1.540000 0.0 0.0
1.545000 0.0 0.0
1.550000 0.0 0.0
1.555000 0.0 0.0
1.560000 0.0 0.0
1.565000 0.0 0.0
1.570000 0.0 0.0
1.575000 0.0 0.0
1.580000 0.0 0.0
1.585000 0.0 0.0
1.590000 0.0 0.0
1.595000 0.0 0.0
1.600000 0.0 0.0
1.605000 0.0 0.0
1.610000 0.0 0.0
1.615000 0.0 0.0
1.620000 0.0 0.0
1.625000 0.0 0.0
1.630000 0.0 0.0
1.635000 0.0 0.0
1.640000 0.0 0.0
1.645000 0.0 0.0
1.650000 0.0 0.0
1.655000 0.0 0.0
1.660000 0.0 0.0
1.665000 0.0 0.0
1.670000 0.0 0.0
1.675000 0.0 0.0
1.680000 0.0 0.0
1.685000 0.0 0.0
1.690000 0.0 0.0
1.695000 0.0 0.0
1.700000 0.0 0.0
1.705000 0.0 0.0
1.710000 0.0 0.0
1.715000 0.0 0.0
1.720000 0.0 0.0
1.725000 0.0 0.0
1.730000 0.0 0.0
1.735000 0.0 0.0
1.740000 0.0 0.0
1.745000 0.0 0.0
1.750000 0.0 0.0
1.755000 0.0 0.0
1.760000 0.0 0.0
1.765000 0.0 0.0
1.770000 0.0 0.0
1.775000 0.0 0.0
1.780000 0.0 0.0
1.785000 0.0 0.0
1.790000 0.0 0.0
1.795000 0.0 0.0
1.800000 0.0 0.0
1.805000 0.0 0.0
1.810000 0.0 0.0
1.815000 0.0 0.0
1.820000 0.0 0.0
1.825000 0.0 0.0
1.830000 0.0 0.0
1.835000 0.0 0.0
1.840000 0.0 0.0
1.845000 0.0 0.0
1.850000 0.0 0.0
1.855000 0.0 0.0
1.860000 0.0 0.0
1.865000 0.0 0.0
1.870000 0.0 0.0
1.875000 0.0 0.0
1.880000 0.0 0.0
1.885000 0.0 0.0
1.890000 0.0 0.0
1.895000 0.0 0.0
1.900000 0.0 0.0
1.905000 0.0 0.0
1.910000 0.0 0.0
1.915000 0.0 0.0
1.920000 0.0 0.0
1.925000 0.0 0.0
1.930000 0.0 0.0
1.935000 0.0 0.0
1.940000 0.0 0.0
1.945000 0.0 0.0
1.950000 0.0 0.0
1.955000 0.0 0.0
1.960000 0.0 0.0
1.965000 0.0 0.0
1.970000 0.0 0.0
1.975000 0.0 0.0
1.980000 0.0 0.0
1.985000 0.0 0.0
1.990000 0.0 0.0
1.995000 0.0 0.0
2.000000 0.0 0.0
2.005000 0.0 0.0
2.010000 0.0 0.0
2.015000 0.0 0.0
2.020000 0.0 0.0
2.025000 0.0 0.0
2.030000 0.0 0.0
2.035000 0.0 0.0
2.040000 0.0 0.0
2.045000 0.0 0.0
2.050000 0.0 0.0
2.055000 0.0 0.0
2.060000 0.0 0.0
2.065000 0.0 0.0
2.070000 0.0 0.0
2.075000 0.0 0.0
2.080000 0.0 0.0
2.085000 0.0 0.0
2.090000 0.0 0.0
2.095000 0.0 0.0
2.100000 0.0 0.0
2.105000 0.0 0.0
2.110000 0.0 0.0
2.115000 0.0 0.0
2.120000 0.0 0.0
2.125000 0.0 0.0
2.130000 0.0 0.0
2.135000 0.0 0.0
2.140000 0.0 0.0
2.145000 0.0 0.0
2.150000 0.0 0.0
2.155000 0.0 0.0
2.160000 0.0 0.0
2.165000 0.0 0.0
2.170000 0.0 0.0
2.175000 0.0 0.0
2.180000 0.0 0.0
2.185000 0.0 0.0
2.190000 0.0 0.0
2.195000 0.0 0.0
2.200000 0.0 0.0
2.205000 0.0 0.0
2.210000 0.0 0.0
2.215000 0.0 0.0
2.220000 0.0 0.0
2.225000 0.0 0.0
2.230000 0.0 0.0
2.235000 0.0 0.0
2.240000 0.0 0.0
2.245000 0.0 0.0
2.250000 0.0 0.0
2.255000 0.0 0.0
2.260000 0.0 0.0
2.265000 0.0 0.0
2.270000 0.0 0.0
2.275000 0.0 0.0
2.280000 0.0 0.0
2.285000 0.0 0.0
2.290000 0.0 0.0
2.295000 0.0 0.0
2.300000 0.0 0.0
2.305000 0.0 0.0
2.310000 0.0 0.0
2.315000 0.0 0.0
2.320000 0.0 0.0
2.325000 0.0 0.0
2.330000 0.0 0.0
2.335000 0.0 0.0
2.340000 0.0 0.0
2.345000 0.0 0.0
2.350000 0.0 0.0
2.355000 0.0 0.0
2.360000 0.0 0.0
2.365000 0.0 0.0
2.370000 0.0 0.0
2.375000 0.0 0.0
2.380000 0.0 0.0
2.385000 0.0 0.0
2.390000 0.0 0.0
2.395000 0.0 0.0
2.400000 0.0 0.0
2.405000 0.0 0.0
2.410000 0.0 0.0
2.415000 0.0 0.0
2.420000 0.0 0.0
2.425000 0.0 0.0
2.430000 0.0 0.0
2.435000 0.0 0.0
2.440000 0.0 0.0
2.445000 0.0 0.0
2.450000 0.0 0.0
2.455000 0.0 0.0
2.460000 0.0 0.0
2.465000 0.0 0.0
2.470000 0.0 0.0
2.475000 0.0 0.0
2.480000 0.0 0.0
2.485000 0.0 0.0
2.490000 0.0 0.0
2.495000 0.0 0.0
2.500000 0.0 0.0
2.505000 0.0 0.0
2.510000 0.0 0.0
2.515000 0.0 0.0
2.520000 0.0 0.0
2.525000 0.0 0.0
2.530000 0.0 0.0
2.535000 0.0 0.0
2.540000 0.0 0.0
2.545000 0.0 0.0
2.550000 0.0 0.0
2.555000 0.0 0.0
2.560000 0.0 0.0
2.565000 0.0 0.0
2.570000 0.0 0.0
2.575000 0.0 0.0
2.580000 0.0 0.0
2.585000 0.0 0.0
2.590000 0.0 0.0
2.595000 0.0 0.0
2.600000 0.0 0.0
2.605000 0.0 0.0
2.610000 0.0 0.0
2.615000 0.0 0.0
2.620000 0.0 0.0
2.625000 0.0 0.0
2.630000 0.0 0.0
2.635000 0.0 0.0
2.640000 0.0 0.0
2.645000 0.0 0.0
2.650000 0.0 0.0
2.655000 0.0 0.0
2.660000 0.0 0.0
2.665000 0.0 0.0
2.670000 0.0 0.0
2.675000 0.0 0.0
2.680000 0.0 0.0
2.685000 0.0 0.0
2.690000 0.0 0.0
2.695000 0.0 0.0
2.700000 0.0 0.0
2.705000 0.0 0.0
2.710000 0.0 0.0
2.715000 0.0 0.0
2.720000 0.0 0.0
2.725000 0.0 0.0
2.730000 0.0 0.0
2.735000 0.0 0.0
2.740000 0.0 0.0
2.745000 0.0 0.0
2.750000 0.0 0.0
2.755000 0.0 0.0
2.760000 0.0 0.0
2.765000 0.0 0.0
2.770000 0.0 0.0
2.775000 0.0 0.0
2.780000 0.0 0.0
2.785000 0.0 0.0
2.790000 0.0 0.0
2.795000 0.0 0.0
2.800000 0.0 0.0
2.805000 0.0 0.0
2.810000 0.0 0.0
2.815000 0.0 0.0
2.820000 0.0 0.0
2.825000 0.0 0.0
2.830000 0.0 0.0
2.835000 0.0 0.0
2.840000 0.0 0.0
2.845000 0.0 0.0
2.850000 0.0 0.0
2.855000 0.0 0.0
2.860000 0.0 0.0
[...]
      <PointData Scalars="Temperature">
        <DataArray type="Float32" Name="Temperature" format="ascii">
308.150000
307.131310
306.112863
305.094901
304.077666
303.061399
302.046342
301.032733
300.020813
299.010818
298.002986
296.997551
295.994747
294.994804
293.997953
293.004420
292.014431
291.028209
290.045974
289.067943
288.094332
287.125353
286.161216
285.202126
284.248288
283.299903
282.357167
281.420278
280.489425
279.564798
278.646585
277.734967
276.830127
275.932243
275.041594
274.166510
273.479956
273.164297
272.996011
272.879641
272.787384
272.708539
272.638013
272.573024
272.511901
272.453572
272.397317
272.342631
272.289154
272.236619
272.184829
272.133635
272.082923
272.032607
271.982618
271.932904
271.883426
271.834152
271.785057
271.736122
271.687333
271.638678
271.590149
271.541739
271.493444
271.445258
271.397181
271.349210
271.301343
271.253581
271.205923
271.158369
271.110919
271.063575
271.016335
270.969202
270.922177
270.875259
270.828450
270.781752
270.735164
270.688689
270.642328
270.596081
270.549949
270.503934
270.458038
270.412260
270.366602
270.321066
270.275652
270.230362
270.185196
270.140156
270.095242
270.050457
270.005800
269.961273
269.916877
269.872614
269.828483
269.784486
269.740624
269.696898
269.653310
269.609859
269.566547
269.523374
269.480343
269.437453
269.394706
269.352102
269.309643
269.267328
269.225160
269.183138
269.141265
269.099539
269.057963
269.016538
268.975263
268.934139
268.893168
268.852351
268.811687
268.771178
268.730824
268.690626
268.650584
268.610700
268.570974
268.531407
268.491999
268.452750
268.413662
268.374736
268.335970
268.297367
268.258927
268.220650
268.182537
268.144588
268.106804
268.069185
268.031732
267.994446
267.957326
267.920373
267.883588
267.846970
267.810521
267.774241
267.738130
267.702188
267.666417
267.630815
267.595384
267.560123
267.525034
267.490116
267.455370
267.420796
267.386394
267.352164
267.318107
267.284223
267.250512
267.216974
267.183610
267.150419
267.117401
267.084558
267.051889
267.019394
266.987073
266.954926
266.922954
266.891156
266.859532
266.828084
266.796809
266.765710
266.734785
266.704035
266.673459
266.643058
266.612831
266.582779
266.552902
266.523199
266.493670
266.464316
266.435135
266.406129
266.377296
266.348638
266.320153
266.291841
266.263703
266.235738
266.207946
266.180327
266.152881
266.125606
266.098504
266.071574
266.044816
266.018229
265.991813
265.965569
265.939495
265.913591
265.887857
265.862293
265.836899
265.811674
265.786617
265.761729
265.737009
265.712457
265.688072
265.663855
265.639804
265.615919
265.592200
265.568647
265.545258
265.522035
265.498975
265.476080
265.453347
265.430778
265.408371
265.386126
265.364042
265.342119
265.320357
265.298755
265.277313
265.256030
265.234905
265.213938
265.193128
265.172476
265.151980
265.131640
265.111455
265.091425
265.071550
265.051828
265.032259
265.012842
264.993578
264.974465
264.955503
264.936691
264.918028
264.899514
264.881149
264.862932
264.844862
264.826938
264.809160
264.791527
264.774039
264.756695
264.739494
264.722436
264.705520
264.688746
264.672112
264.655618
264.639264
264.623048
264.606971
264.591030
264.575227
264.559560
264.544028
264.528630
264.513367
264.498237
264.483239
264.468373
264.453639
264.439035
264.424561
264.410216
264.396000
264.381911
264.367949
264.354113
264.340403
264.326818
264.313357
264.300019
264.286804
264.273711
264.260739
264.247888
264.235157
264.222545
264.210051
264.197675
264.185415
264.173272
264.161244
264.149332
264.137533
264.125847
264.114274
264.102813
264.091463
264.080223
264.069093
264.058072
264.047160
264.036354
264.025656
264.015063
264.004576
263.994193
263.983915
263.973739
263.963666
263.953694
263.943824
263.934054
263.924383
263.914811
263.905337
263.895961
263.886682
263.877498
263.868409
263.859416
263.850516
263.841709
263.832994
263.824372
263.815840
263.807399
263.799047
263.790784
263.782610
263.774523
263.766523
263.758609
263.750780
263.743037
263.735377
263.727801
263.720308
263.712897
263.705567
263.698318
263.691149
263.684059
263.677048
263.670116
263.663260
263.656482
263.649780
263.643153
263.636601
263.630123
263.623718
263.617387
263.611127
263.604940
263.598823
263.592777
263.586800
263.580893
263.575054
263.569283
263.563579
263.557942
263.552371
263.546865
263.541424
263.536047
263.530734
263.525484
263.520297
263.515171
263.510107
263.505103
263.500160
263.495276
263.490451
263.485684
263.480976
263.476324
263.471729
263.467191
263.462708
263.458280
263.453907
263.449588
263.445322
263.441109
263.436949
263.432840
263.428783
263.424777
263.420821
263.416915
263.413058
263.409249
263.405489
263.401777
263.398112
263.394494
263.390923
263.387397
263.383916
263.380480
263.377089
263.373742
263.370438
263.367177
263.363958
263.360781
263.357647
263.354553
263.351500
263.348487
263.345514
263.342580
263.339686
263.336830
263.334012
263.331231
263.328488
263.325782
263.323112
263.320478
263.317879
263.315316
263.312788
263.310294
263.307834
263.305407
263.303014
263.300654
263.298326
263.296030
263.293766
263.291533
263.289331
263.287160
263.285018
263.282907
263.280826
263.278773
263.276749
263.274754
263.272787
263.270848
263.268936
263.267051
263.265193
263.263362
263.261557
263.259777
263.258023
263.256294
263.254591
263.252911
263.251256
263.249625
263.248018
263.246434
263.244873
263.243335
263.241819
263.240325
263.238854
263.237404
263.235975
263.234568
263.233181
263.231815
263.230470
263.229144
263.227838
263.226552
263.225284
263.224036
263.222807
263.221596
263.220403
263.219229
263.218072
263.216933
263.215811
263.214706
263.213618
263.212547
263.211492
263.210453
263.209431
263.208424
263.207432
263.206456
263.205495
263.204549
263.203618
263.202701
263.201799
263.200910
263.200036
263.199175
263.198328
263.197494
263.196673
263.195865
263.195070
263.194288
263.193518
263.192760
263.192015
263.191281
263.190559
263.189849
263.189150
263.188462
263.187786
263.187120
263.186465
263.185821
263.185187
263.184563
263.183950
263.183347
263.182753
263.182169
263.181595
263.181030
263.180475
263.179929
263.179391
263.178863
263.178343
263.177832
263.177330
263.176836
263.176350
263.175872
263.175402
263.174940
263.174486
263.174040
263.173601
263.173169
263.172745
263.172328
263.171918
263.171515
263.171119
263.170729
263.170346
263.169970
263.169600
263.169237
263.168880
263.168529
263.168184
263.167845
263.167512
263.167184
263.166863
263.166547
263.166236
263.165931
263.165631
263.165336
263.165047
263.164762
263.164483
263.164209
263.163939
263.163674
263.163414
263.163158
263.162907
263.162661
263.162419
263.162181
263.161947
263.161718
263.161493
263.161271
263.161054
263.160841
263.160631
263.160425
263.160223
263.160025
263.159830
263.159639
263.159451
263.159267
263.159086
263.158908
263.158733
263.158562
263.158394
263.158229
263.158067
263.157908
263.157752
263.157599
263.157448
263.157301
263.157156
263.157014
263.156874
263.156738
263.156603
263.156471
263.156342
263.156215
263.156091
263.155968
263.155848
263.155731
263.155615
263.155502
263.155391
263.155282
263.155175
263.155070
263.154967
263.154866
263.154767
263.154670
263.154575
263.154482
263.154390
263.154300
263.154212
263.154125
263.154041
263.153958
263.153876
263.153796
263.153718
263.153641
263.153565
263.153491
263.153419
263.153348
263.153278
263.153210
263.153143
263.153077
263.153013
263.152950
263.152888
263.152827
263.152768
263.152710
263.152652
263.152596
263.152542
263.152488
263.152435
263.152383
263.152333
263.152283
263.152234
263.152187
263.152140
263.152094
263.152049
263.152005
263.151962
263.151920
263.151879
263.151838
263.151799
263.151760
263.151722
263.151684
263.151648
263.151612
263.151577
263.151542
263.151508
263.151475
263.151443
263.151411
263.151380
263.151350
263.151320
263.151291
263.151262
263.151234
263.151207
263.151180
263.151153
263.151128
263.151102
263.151078
263.151053
263.151030
263.151006
263.150983
263.150961
263.150939
263.150918
263.150897
263.150876
263.150856
263.150836
263.150817
263.150798
263.150780
263.150761
263.150744
263.150726
263.150709
263.150692
263.150676
263.150660
263.150644
263.150629
263.150613
263.150599
263.150584
263.150570
263.150556
263.150542
263.150529
263.150516
263.150503
263.150490
263.150478
263.150466
263.150454
263.150442
263.150431
263.150419
263.150408
263.150397
263.150387
263.150376
263.150366
263.150356
263.150346
263.150336
263.150327
263.150318
263.150308
263.150299
263.150290
263.150282
263.150273
263.150265
263.150256
263.150248
263.150240
263.150232
263.150225
263.150217
263.150209
263.150202
263.150194
263.150187
263.150180
263.150173
263.150166
263.150159
263.150152
263.150146
263.150139
263.150132
263.150126
263.150120
263.150113
263.150107
263.150101
263.150094
263.150088
263.150082
263.150076
263.150070
263.150064
263.150058
263.150052
263.150046
263.150041
263.150035
263.150029
263.150023
263.150017
263.150012
263.150006
263.150000
        </DataArray>
      </PointData>
      <CellData>
      </CellData>
    </Piece>
  </UnstructuredGrid>
</VTKFile>
