<?xml version="1.0"?>
<VTKFile type="UnstructuredGrid" version="0.1" byte_order="LittleEndian">
  <UnstructuredGrid>
    <Piece NumberOfPoints="801" NumberOfCells="800">
      <Points>
        <DataArray type="Float32" NumberOfComponents="3" format="ascii">
0.000000 0.0 0.0
0.005000 0.0 0.0
0.010000 0.0 0.0
0.015000 0.0 0.0
0.020000 0.0 0.0
0.025000 0.0 0.0
0.030000 0.0 0.0
0.035000 0.0 0.0
0.040000 0.0 0.0
0.045000 0.0 0.0
0.050000 0.0 0.0
0.055000 0.0 0.0
0.060000 0.0 0.0
0.065000 0.0 0.0
0.070000 0.0 0.0
0.075000 0.0 0.0
0.080000 0.0 0.0
0.085000 0.0 0.0
0.090000 0.0 0.0
0.095000 0.0 0.0
0.100000 0.0 0.0
0.105000 0.0 0.0
0.110000 0.0 0.0
0.115000 0.0 0.0
0.120000 0.0 0.0
0.125000 0.0 0.0
0.130000 0.0 0.0
0.135000 0.0 0.0
0.140000 0.0 0.0
0.145000 0.0 0.0
0.150000 0.0 0.0
0.155000 0.0 0.0
0.160000 0.0 0.0
0.165000 0.0 0.0
0.170000 0.0 0.0
0.175000 0.0 0.0
0.180000 0.0 0.0
0.185000 0.0 0.0
0.190000 0.0 0.0
0.195000 0.0 0.0
0.200000 0.0 0.0
0.205000 0.0 0.0
0.210000 0.0 0.0
0.215000 0.0 0.0
0.220000 0.0 0.0
0.225000 0.0 0.0
0.230000 0.0 0.0
0.235000 0.0 0.0
0.240000 0.0 0.0
0.245000 0.0 0.0
0.250000 0.0 0.0
0.255000 0.0 0.0
0.260000 0.0 0.0
0.265000 0.0 0.0
0.270000 0.0 0.0
0.275000 0.0 0.0
0.280000 0.0 0.0
0.285000 0.0 0.0
0.290000 0.0 0.0
0.295000 0.0 0.0
0.300000 0.0 0.0
0.305000 0.0 0.0
0.310000 0.0 0.0
0.315000 0.0 0.0
0.320000 0.0 0.0
0.325000 0.0 0.0
0.330000 0.0 0.0
0.335000 0.0 0.0
0.340000 0.0 0.0
0.345000 0.0 0.0
0.350000 0.0 0.0
0.355000 0.0 0.0
0.360000 0.0 0.0
0.365000 0.0 0.0
0.370000 0.0 0.0
0.375000 0.0 0.0
0.380000 0.0 0.0
0.385000 0.0 0.0
0.390000 0.0 0.0
0.395000 0.0 0.0
0.400000 0.0 0.0
0.405000 0.0 0.0
0.410000 0.0 0.0
0.415000 0.0 0.0
0.420000 0.0 0.0
0.425000 0.0 0.0
0.430000 0.0 0.0
0.435000 0.0 0.0
0.440000 0.0 0.0
0.445000 0.0 0.0
0.450000 0.0 0.0
0.455000 0.0 0.0
0.460000 0.0 0.0
0.465000 0.0 0.0
0.470000 0.0 0.0
0.475000 0.0 0.0
0.480000 0.0 0.0
0.485000 0.0 0.0
0.490000 0.0 0.0
0.495000 0.0 0.0
0.500000 0.0 0.0
0.505000 0.0 0.0
0.510000 0.0 0.0
0.515000 0.0 0.0
0.520000 0.0 0.0
0.525000 0.0 0.0
0.530000 0.0 0.0
0.535000 0.0 0.0
0.540000 0.0 0.0
0.545000 0.0 0.0
0.550000 0.0 0.0
0.555000 0.0 0.0
0.560000 0.0 0.0
0.565000 0.0 0.0
0.570000 0.0 0.0
0.575000 0.0 0.0
0.580000 0.0 0.0
0.585000 0.0 0.0
0.590000 0.0 0.0
0.595000 0.0 0.0
0.600000 0.0 0.0
0.605000 0.0 0.0
0.610000 0.0 0.0
0.615000 0.0 0.0
0.620000 0.0 0.0
0.625000 0.0 0.0
0.630000 0.0 0.0
0.635000 0.0 0.0
0.640000 0.0 0.0
0.645000 0.0 0.0
0.650000 0.0 0.0
0.655000 0.0 0.0
0.660000 0.0 0.0
0.665000 0.0 0.0
0.670000 0.0 0.0
0.675000 0.0 0.0
0.680000 0.0 0.0
0.685000 0.0 0.0
0.690000 0.0 0.0
0.695000 0.0 0.0
0.700000 0.0 0.0
0.705000 0.0 0.0
0.710000 0.0 0.0
0.715000 0.0 0.0
0.720000 0.0 0.0
0.725000 0.0 0.0
0.730000 0.0 0.0
0.735000 0.0 0.0
0.740000 0.0 0.0
0.745000 0.0 0.0
0.750000 0.0 0.0
0.755000 0.0 0.0
0.760000 0.0 0.0
0.765000 0.0 0.0
0.770000 0.0 0.0
0.775000 0.0 0.0
0.780000 0.0 0.0
0.785000 0.0 0.0
0.790000 0.0 0.0
0.795000 0.0 0.0
0.800000 0.0 0.0
0.805000 0.0 0.0
0.810000 0.0 0.0
0.815000 0.0 0.0
0.820000 0.0 0.0
0.825000 0.0 0.0
0.830000 0.0 0.0
0.835000 0.0 0.0
0.840000 0.0 0.0
0.845000 0.0 0.0
0.850000 0.0 0.0
0.855000 0.0 0.0
0.860000 0.0 0.0
0.865000 0.0 0.0
0.870000 0.0 0.0
0.875000 0.0 0.0
0.880000 0.0 0.0
0.885000 0.0 0.0
0.890000 0.0 0.0
0.895000 0.0 0.0
0.900000 0.0 0.0
0.905000 0.0 0.0
0.910000 0.0 0.0
0.915000 0.0 0.0
0.920000 0.0 0.0
0.925000 0.0 0.0
0.930000 0.0 0.0
0.935000 0.0 0.0
0.940000 0.0 0.0
0.945000 0.0 0.0
0.950000 0.0 0.0
0.955000 0.0 0.0
0.960000 0.0 0.0
0.965000 0.0 0.0
0.970000 0.0 0.0
0.975000 0.0 0.0
0.980000 0.0 0.0
0.985000 0.0 0.0
0.990000 0.0 0.0
0.995000 0.0 0.0
1.000000 0.0 0.0
1.005000 0.0 0.0
1.010000 0.0 0.0
1.015000 0.0 0.0
1.020000 0.0 0.0
1.025000 0.0 0.0
1.030000 0.0 0.0
1.035000 0.0 0.0
1.040000 0.0 0.0
1.045000 0.0 0.0
1.050000 0.0 0.0
1.055000 0.0 0.0
1.060000 0.0 0.0
1.065000 0.0 0.0
1.070000 0.0 0.0
1.075000 0.0 0.0
1.080000 0.0 0.0
1.085000 0.0 0.0
1.090000 0.0 0.0
1.095000 0.0 0.0
1.100000 0.0 0.0
1.105000 0.0 0.0
1.110000 0.0 0.0
1.115000 0.0 0.0
1.120000 0.0 0.0
1.125000 0.0 0.0
1.130000 0.0 0.0
1.135000 0.0 0.0
1.140000 0.0 0.0
1.145000 0.0 0.0
1.150000 0.0 0.0
1.155000 0.0 0.0
1.160000 0.0 0.0
1.165000 0.0 0.0
1.170000 0.0 0.0
1.175000 0.0 0.0
1.180000 0.0 0.0
1.185000 0.0 0.0
1.190000 0.0 0.0
1.195000 0.0 0.0
1.200000 0.0 0.0
1.205000 0.0 0.0
1.210000 0.0 0.0
1.215000 0.0 0.0
1.220000 0.0 0.0
1.225000 0.0 0.0
1.230000 0.0 0.0
1.235000 0.0 0.0
1.240000 0.0 0.0
1.245000 0.0 0.0
1.250000 0.0 0.0
1.255000 0.0 0.0
1.260000 0.0 0.0
1.265000 0.0 0.0
1.270000 0.0 0.0
1.275000 0.0 0.0
1.280000 0.0 0.0
1.285000 0.0 0.0
1.290000 0.0 0.0
1.295000 0.0 0.0
1.300000 0.0 0.0
1.305000 0.0 0.0
1.310000 0.0 0.0
1.315000 0.0 0.0
1.320000 0.0 0.0
1.325000 0.0 0.0
1.330000 0.0 0.0
1.335000 0.0 0.0
1.340000 0.0 0.0
1.345000 0.0 0.0
1.350000 0.0 0.0
1.355000 0.0 0.0
1.360000 0.0 0.0
1.365000 0.0 0.0
1.370000 0.0 0.0
1.375000 0.0 0.0
1.380000 0.0 0.0
1.385000 0.0 0.0
1.390000 0.0 0.0
1.395000 0.0 0.0
1.400000 0.0 0.0
1.405000 0.0 0.0
1.410000 0.0 0.0
1.415000 0.0 0.0
1.420000 0.0 0.0
1.425000 0.0 0.0
1.430000 0.0 0.0
1.435000 0.0 0.0
1.440000 0.0 0.0
1.445000 0.0 0.0
1.450000 0.0 0.0
1.455000 0.0 0.0
1.460000 0.0 0.0
1.465000 0.0 0.0
1.470000 0.0 0.0
1.475000 0.0 0.0
1.480000 0.0 0.0
1.485000 0.0 0.0
1.490000 0.0 0.0
1.495000 0.0 0.0
1.500000 0.0 0.0
1.505000 0.0 0.0
1.510000 0.0 0.0
1.515000 0.0 0.0
1.520000 0.0 0.0
1.525000 0.0 0.0
1.530000 0.0 0.0
1.535000 0.0 0.0
1.540000 0.0 0.0
1.545000 0.0 0.0
1.550000 0.0 0.0
1.555000 0.0 0.0
1.560000 0.0 0.0
1.565000 0.0 0.0
1.570000 0.0 0.0
1.575000 0.0 0.0
1.580000 0.0 0.0
1.585000 0.0 0.0
1.590000 0.0 0.0
1.595000 0.0 0.0
1.600000 0.0 0.0
1.605000 0.0 0.0
1.610000 0.0 0.0
1.615000 0.0 0.0
1.620000 0.0 0.0
1.625000 0.0 0.0
1.630000 0.0 0.0
1.635000 0.0 0.0
1.640000 0.0 0.0
1.645000 0.0 0.0
1.650000 0.0 0.0
1.655000 0.0 0.0
1.660000 0.0 0.0
1.665000 0.0 0.0
1.670000 0.0 0.0
1.675000 0.0 0.0
1.680000 0.0 0.0
1.685000 0.0 0.0
1.690000 0.0 0.0
1.695000 0.0 0.0
1.700000 0.0 0.0
1.705000 0.0 0.0
1.710000 0.0 0.0
1.715000 0.0 0.0
1.720000 0.0 0.0
1.725000 0.0 0.0
1.730000 0.0 0.0
1.735000 0.0 0.0
1.740000 0.0 0.0
1.745000 0.0 0.0
1.750000 0.0 0.0
1.755000 0.0 0.0
1.760000 0.0 0.0
1.765000 0.0 0.0
1.770000 0.0 0.0
1.775000 0.0 0.0
1.780000 0.0 0.0
1.785000 0.0 0.0
1.790000 0.0 0.0
1.795000 0.0 0.0
1.800000 0.0 0.0
1.805000 0.0 0.0
1.810000 0.0 0.0
1.815000 0.0 0.0
1.820000 0.0 0.0
1.825000 0.0 0.0
1.830000 0.0 0.0
1.835000 0.0 0.0
1.840000 0.0 0.0
1.845000 0.0 0.0
1.850000 0.0 0.0
1.855000 0.0 0.0
1.860000 0.0 0.0
1.865000 0.0 0.0
1.870000 0.0 0.0
1.875000 0.0 0.0
1.880000 0.0 0.0
1.885000 0.0 0.0
1.890000 0.0 0.0
1.895000 0.0 0.0
1.900000 0.0 0.0
1.905000 0.0 0.0
1.910000 0.0 0.0
1.915000 0.0 0.0
1.920000 0.0 0.0
1.925000 0.0 0.0
1.930000 0.0 0.0
1.935000 0.0 0.0
1.940000 0.0 0.0
1.945000 0.0 0.0
1.950000 0.0 0.0
1.955000 0.0 0.0
1.960000 0.0 0.0
1.965000 0.0 0.0
1.970000 0.0 0.0
1.975000 0.0 0.0
1.980000 0.0 0.0
1.985000 0.0 0.0
1.990000 0.0 0.0
1.995000 0.0 0.0
2.000000 0.0 0.0
2.005000 0.0 0.0
2.010000 0.0 0.0
2.015000 0.0 0.0
2.020000 0.0 0.0
2.025000 0.0 0.0
2.030000 0.0 0.0
2.035000 0.0 0.0
2.040000 0.0 0.0
2.045000 0.0 0.0
2.050000 0.0 0.0
2.055000 0.0 0.0
2.060000 0.0 0.0
2.065000 0.0 0.0
2.070000 0.0 0.0
2.075000 0.0 0.0
2.080000 0.0 0.0
2.085000 0.0 0.0
2.090000 0.0 0.0
2.095000 0.0 0.0
2.100000 0.0 0.0
2.105000 0.0 0.0
2.110000 0.0 0.0
2.115000 0.0 0.0
2.120000 0.0 0.0
2.125000 0.0 0.0
2.130000 0.0 0.0
2.135000 0.0 0.0
2.140000 0.0 0.0
2.145000 0.0 0.0
2.150000 0.0 0.0
2.155000 0.0 0.0
2.160000 0.0 0.0
2.165000 0.0 0.0
2.170000 0.0 0.0
2.175000 0.0 0.0
2.180000 0.0 0.0
2.185000 0.0 0.0
2.190000 0.0 0.0
2.195000 0.0 0.0
2.200000 0.0 0.0
2.205000 0.0 0.0
2.210000 0.0 0.0
2.215000 0.0 0.0
2.220000 0.0 0.0
2.225000 0.0 0.0
2.230000 0.0 0.0
2.235000 0.0 0.0
2.240000 0.0 0.0
2.245000 0.0 0.0
2.250000 0.0 0.0
2.255000 0.0 0.0
2.260000 0.0 0.0
2.265000 0.0 0.0
2.270000 0.0 0.0
2.275000 0.0 0.0
2.280000 0.0 0.0
2.285000 0.0 0.0
2.290000 0.0 0.0
2.295000 0.0 0.0
2.300000 0.0 0.0
2.305000 0.0 0.0
2.310000 0.0 0.0
2.315000 0.0 0.0
2.320000 0.0 0.0
2.325000 0.0 0.0
2.330000 0.0 0.0
2.335000 0.0 0.0
2.340000 0.0 0.0
2.345000 0.0 0.0
2.350000 0.0 0.0
2.355000 0.0 0.0
2.360000 0.0 0.0
2.365000 0.0 0.0
2.370000 0.0 0.0
2.375000 0.0 0.0
2.380000 0.0 0.0
2.385000 0.0 0.0
2.390000 0.0 0.0
2.395000 0.0 0.0
2.400000 0.0 0.0
2.405000 0.0 0.0
2.410000 0.0 0.0
2.415000 0.0 0.0
2.420000 0.0 0.0
2.425000 0.0 0.0
2.430000 0.0 0.0
2.435000 0.0 0.0
2.440000 0.0 0.0
2.445000 0.0 0.0
2.450000 0.0 0.0
2.455000 0.0 0.0
2.460000 0.0 0.0
2.465000 0.0 0.0
2.470000 0.0 0.0
2.475000 0.0 0.0
2.480000 0.0 0.0
2.485000 0.0 0.0
2.490000 0.0 0.0
2.495000 0.0 0.0
2.500000 0.0 0.0
2.505000 0.0 0.0
2.510000 0.0 0.0
2.515000 0.0 0.0
2.520000 0.0 0.0
2.525000 0.0 0.0
2.530000 0.0 0.0
2.535000 0.0 0.0
2.540000 0.0 0.0
2.545000 0.0 0.0
2.550000 0.0 0.0
2.555000 0.0 0.0
2.560000 0.0 0.0
2.565000 0.0 0.0
2.570000 0.0 0.0
2.575000 0.0 0.0
2.580000 0.0 0.0
2.585000 0.0 0.0
2.590000 0.0 0.0
2.595000 0.0 0.0
2.600000 0.0 0.0
2.605000 0.0 0.0
2.610000 0.0 0.0
2.615000 0.0 0.0
2.620000 0.0 0.0
2.625000 0.0 0.0
2.630000 0.0 0.0
2.635000 0.0 0.0
2.640000 0.0 0.0
2.645000 0.0 0.0
2.650000 0.0 0.0
2.655000 0.0 0.0
2.660000 0.0 0.0
2.665000 0.0 0.0
2.670000 0.0 0.0
2.675000 0.0 0.0
2.680000 0.0 0.0
2.685000 0.0 0.0
2.690000 0.0 0.0
2.695000 0.0 0.0
2.700000 0.0 0.0
2.705000 0.0 0.0
2.710000 0.0 0.0
2.715000 0.0 0.0
2.720000 0.0 0.0
2.725000 0.0 0.0
2.730000 0.0 0.0
2.735000 0.0 0.0
2.740000 0.0 0.0
2.745000 0.0 0.0
2.750000 0.0 0.0
2.755000 0.0 0.0
2.760000 0.0 0.0
2.765000 0.0 0.0
2.770000 0.0 0.0
2.775000 0.0 0.0
2.780000 0.0 0.0
2.785000 0.0 0.0
2.790000 0.0 0.0
2.795000 0.0 0.0
2.800000 0.0 0.0
2.805000 0.0 0.0
2.810000 0.0 0.0
2.815000 0.0 0.0
2.820000 0.0 0.0
2.825000 0.0 0.0
2.830000 0.0 0.0
2.835000 0.0 0.0
2.840000 0.0 0.0
2.845000 0.0 0.0
2.850000 0.0 0.0
2.855000 0.0 0.0
2.860000 0.0 0.0
[...]
      <PointData Scalars="Temperature">
        <DataArray type="Float32" Name="Temperature" format="ascii">
308.150000
307.140786
306.131808
305.123301
304.115503
303.108647
302.102968
301.098700
300.096075
299.095326
298.096682
297.100372
296.106624
295.115664
294.127715
293.142999
292.161736
291.184144
290.210436
289.240826
288.275523
287.314734
286.358662
285.407508
284.461468
283.520736
282.585501
281.655948
280.732257
279.814605
278.903162
277.998092
277.099554
276.207701
275.322701
274.446672
273.660617
273.246481
273.046615
272.917808
272.819414
272.737127
272.664534
272.598267
272.536357
272.477569
272.421080
272.366323
272.312893
272.260495
272.208911
272.157974
272.107561
272.057574
272.007939
271.958600
271.909510
271.860636
271.811949
271.763430
271.715061
271.666830
271.618727
271.570744
271.522876
271.475118
271.427468
271.379923
271.332481
271.285142
271.237904
271.190769
271.143736
271.096805
271.049978
271.003254
270.956634
270.910119
270.863711
270.817410
270.771217
270.725134
270.679160
270.633298
270.587549
270.541913
270.496391
270.450986
270.405697
270.360526
270.315474
270.270542
270.225732
270.181043
270.136478
270.092037
270.047721
270.003532
269.959470
269.915536
269.871732
269.828058
269.784515
269.741105
269.697828
269.654685
269.611678
269.568806
269.526071
269.483474
269.441016
269.398697
269.356519
269.314482
269.272587
269.230835
269.189227
269.147764
269.106446
269.065274
269.024249
268.983371
268.942642
268.902062
268.861633
268.821353
268.781225
268.741249
268.701425
268.661755
268.622239
268.582877
268.543671
268.504620
268.465726
268.426989
268.388409
268.349987
268.311724
268.273621
268.235677
268.197893
268.160270
268.122808
268.085508
268.048370
268.011395
267.974583
267.937935
267.901450
267.865130
267.828974
267.792984
267.757159
267.721500
267.686007
267.650680
267.615520
267.580528
267.545703
267.511045
267.476556
267.442235
267.408082
267.374098
267.340283
267.306637
267.273160
267.239853
267.206716
267.173749
267.140952
267.108324
267.075868
267.043581
267.011466
266.979520
266.947746
266.916143
266.884710
266.853448
266.822357
266.791438
266.760689
266.730111
266.699705
266.669469
266.639404
266.609511
266.579788
266.550236
266.520855
266.491645
266.462605
266.433736
266.405038
266.376509
266.348151
266.319963
266.291945
266.264097
266.236418
266.208909
266.181568
266.154397
266.127395
266.100562
266.073897
266.047400
266.021071
265.994910
265.968916
265.943089
265.917429
265.891936
265.866609
265.841448
265.816453
265.791624
265.766959
265.742459
265.718123
265.693952
265.669944
265.646100
265.622418
265.598899
265.575542
265.552347
265.529313
265.506441
265.483728
265.461176
265.438784
265.416551
265.394476
265.372560
265.350802
265.329201
265.307757
265.286470
265.265339
265.244363
265.223542
265.202875
265.182363
265.162004
265.141798
265.121744
265.101842
265.082092
265.062492
265.043043
265.023743
265.004592
264.985590
264.966736
264.948030
264.929470
264.911056
264.892789
264.874666
264.856688
264.838853
264.821162
264.803614
264.786208
264.768943
264.751819
264.734835
264.717991
264.701285
264.684718
264.668289
264.651997
264.635841
264.619821
264.603936
264.588185
264.572568
264.557084
264.541733
264.526514
264.511425
264.496467
264.481639
264.466940
264.452370
264.437927
264.423611
264.409422
264.395358
264.381420
264.367605
264.353915
264.340347
264.326902
264.313578
264.300375
264.287293
264.274329
264.261485
264.248759
264.236150
264.223658
264.211281
264.199021
264.186874
264.174842
264.162923
264.151116
264.139421
264.127837
264.116364
264.105000
264.093745
264.082599
264.071560
264.060628
264.049802
264.039081
264.028465
264.017953
264.007545
263.997239
263.987036
263.976933
263.966931
263.957029
263.947226
263.937521
263.927914
263.918404
263.908991
263.899673
263.890451
263.881322
263.872287
263.863345
263.854495
263.845737
263.837070
263.828493
263.820005
263.811606
263.803295
263.795072
263.786936
263.778885
263.770920
263.763040
263.755244
263.747531
263.739902
263.732354
263.724888
263.717502
263.710197
263.702971
263.695825
263.688756
263.681765
263.674851
263.668013
263.661250
263.654563
263.647950
263.641411
263.634945
263.628552
263.622230
263.615980
263.609800
263.603690
263.597650
263.591679
263.585775
263.579940
263.574171
263.568469
263.562832
263.557261
263.551754
263.546311
263.540932
263.535616
263.530362
263.525169
263.520038
263.514968
263.509957
263.505006
263.500114
263.495280
263.490504
263.485785
263.481122
263.476516
263.471966
263.467470
263.463030
263.458643
263.454309
263.450029
263.445801
263.441625
263.437500
263.433426
263.429403
263.425429
263.421505
263.417630
263.413803
263.410024
263.406292
263.402607
263.398969
263.395376
263.391830
263.388328
263.384870
263.381457
263.378087
263.374761
263.371477
263.368235
263.365036
263.361877
263.358760
263.355683
263.352646
263.349648
263.346690
263.343770
263.340889
263.338046
263.335240
263.332471
263.329739
263.327044
263.324384
263.321759
263.319170
263.316615
263.314095
263.311608
263.309155
263.306735
263.304348
263.301993
263.299670
263.297379
263.295119
263.292890
263.290692
263.288523
263.286385
263.284276
263.282196
263.280145
263.278123
263.276128
263.274162
263.272223
263.270311
263.268425
263.266567
263.264734
263.262928
263.261147
263.259391
263.257660
263.255953
263.254271
263.252613
263.250979
263.249368
263.247781
263.246216
263.244674
263.243154
263.241656
263.240179
263.238725
263.237291
263.235878
263.234487
263.233115
263.231763
263.230432
263.229120
263.227827
263.226554
263.225299
263.224063
263.222846
263.221646
263.220465
263.219301
263.218155
263.217026
263.215914
263.214818
263.213739
263.212677
263.211630
263.210600
263.209585
263.208586
263.207602
263.206633
263.205679
263.204739
263.203814
263.202903
263.202007
263.201124
263.200255
263.199399
263.198557
263.197727
263.196911
263.196108
263.195317
263.194538
263.193772
263.193018
263.192275
263.191545
263.190826
263.190118
263.189422
263.188737
263.188062
263.187399
263.186746
263.186104
263.185471
263.184849
263.184237
263.183635
263.183043
263.182460
263.181887
263.181323
263.180768
263.180223
263.179686
263.179158
263.178638
263.178128
263.177625
263.177131
263.176645
263.176167
263.175697
263.175235
263.174780
263.174333
263.173893
263.173461
263.173036
263.172618
263.172208
263.171804
263.171406
263.171016
263.170632
263.170255
263.169884
263.169519
263.169160
263.168808
263.168462
263.168121
263.167787
263.167458
263.167134
263.166817
263.166505
263.166198
263.165896
263.165600
263.165309
263.165022
263.164741
263.164465
263.164194
263.163927
263.163665
263.163407
263.163154
263.162906
263.162662
263.162422
263.162186
263.161955
263.161727
263.161504
263.161285
263.161069
263.160858
263.160650
263.160446
263.160245
263.160048
263.159855
263.159665
263.159479
263.159296
263.159116
263.158939
263.158766
263.158596
263.158429
263.158265
263.158103
263.157945
263.157790
263.157638
263.157488
263.157341
263.157197
263.157055
263.156916
263.156780
263.156646
263.156515
263.156386
263.156259
263.156135
263.156013
263.155894
263.155776
263.155661
263.155548
263.155437
263.155328
263.155221
263.155117
263.155014
263.154913
263.154814
263.154717
263.154622
263.154528
263.154436
263.154347
263.154258
263.154172
263.154087
263.154004
263.153922
263.153842
263.153763
263.153686
263.153611
263.153536
263.153464
263.153392
263.153322
263.153254
263.153187
263.153121
263.153056
263.152993
263.152930
263.152869
263.152810
263.152751
263.152694
263.152637
263.152582
263.152528
263.152475
263.152423
263.152372
263.152322
263.152273
263.152224
263.152177
263.152131
263.152086
263.152041
263.151998
263.151955
263.151914
263.151873
263.151832
263.151793
263.151754
263.151717
263.151680
263.151643
263.151608
263.151573
263.151539
263.151505
263.151472
263.151440
263.151409
263.151378
263.151347
263.151318
263.151289
263.151260
263.151232
263.151205
263.151178
263.151152
263.151126
263.151101
263.151076
263.151052
263.151028
263.151005
263.150982
263.150960
263.150938
263.150916
263.150895
263.150874
263.150854
263.150834
263.150815
263.150796
263.150777
263.150759
263.150741
263.150723
263.150706
263.150689
263.150673
263.150656
263.150640
263.150625
263.150609
263.150594
263.150580
263.150565
263.150551
263.150537
263.150523
263.150510
263.150497
263.150484
263.150471
263.150459
263.150446
263.150434
263.150422
263.150411
263.150399
263.150388
263.150377
263.150366
263.150356
263.150345
263.150335
263.150325
263.150315
263.150305
263.150295
263.150286
263.150277
263.150267
263.150258
263.150249
263.150240
263.150232
263.150223
263.150215
263.150206
263.150198
263.150190
263.150182
263.150174
263.150166
263.150158
263.150150
263.150143
263.150135
263.150128
263.150120
263.150113
263.150105
263.150098
263.150091
263.150084
263.150077
263.150070
263.150063
263.150055
263.150048
263.150042
263.150035
263.150028
263.150021
263.150014
263.150007
263.150000
        </DataArray>
      </PointData>
      <CellData>
      </CellData>
    </Piece>
  </UnstructuredGrid>
</VTKFile>
